 +-------------------------------------------------+
 |                                                 |
 |      CCC   AA    SSS  TTTTT  EEEEE  PPPP        |
 |     C     A  A  S       T    E      P   P       |
 |     C     AAAA   SS     T    EEE    PPPP        |
 |     C     A  A     S    T    E      P           |
 |      CCC  A  A  SSS     T    EEEEE  P           |
 |                                                 |
 +-------------------------------------------------+
 |                                                 |
 | Welcome to Academic Release CASTEP version 16.1 |          
 | Ab Initio Total Energy Program                  |
 |                                                 |
 | Authors:                                        |
 | M. Segall, M. Probert, C. Pickard, P. Hasnip,   |
 | S. Clark, K. Refson, J. R. Yates, M. Payne      |
 |                                                 |
 | Contributors:                                   |
 | P. Lindan, P. Haynes, J. White, V. Milman,      |
 | N. Govind, M. Gibson, P. Tulip, V. Cocula,      |
 | B. Montanari, D. Quigley, M. Glover,            |
 | L. Bernasconi, A. Perlov, M. Plummer,           |
 | E. McNellis, J. Meyer, J. Gale, D. Jochym       |
 | J. Aarons, B. Walker, R. Gillen, D. Jones       |
 | T. Green, I. J. Bush, C. J. Armstrong,          |
 | E. J. Higgins, E. L. Brown, M. S. McFly         |
 |                                                 |
 | Copyright (c) 2000 - 2015                       |
 |                                                 |
 |     Distributed under the terms of an           |
 |     Agreement between the United Kingdom        |
 |     Car-Parrinello (UKCP) Consortium,           |
 |     Daresbury Laboratory and Accelrys, Inc.     |
 |                                                 |
 | Please cite                                     |
 |                                                 |
 |     "First principles methods using CASTEP"     |
 |                                                 |
 |         Zeitschrift fuer Kristallographie       |
 |           220(5-6) pp. 567-570 (2005)           |
 |                                                 |
 | S. J. Clark, M. D. Segall, C. J. Pickard,       |
 | P. J. Hasnip, M. J. Probert, K. Refson,         |
 | M. C. Payne                                     |
 |                                                 |
 |       in all publications arising from          |
 |              your use of CASTEP                 |
 |                                                 |
 +-------------------------------------------------+
 
 
 Compiled for linux_x86_64_cray-XT on Tue, 22 Mar 2022 15:42:52 +0000
 from code version b833c1ffcd7d+  Fri, 13 Jun 2014 17:24:31 +0100
 Compiler: Cray Fortran 11.0.4; Optimisation: intermediate
 MATHLIBS: LibSci (LAPACK version 3.6.1)
 FFT Lib : default
 Fundamental constants values: CODATA 2010
 
 Run started: Tue, 29 Mar 2022 10:34:18 -0100
 +-------------------------------------------------+
 |                                                 |
 |           N   N    M   M    RRRR                |
 |           NN  N    MM MM    R   R               |
 |           N N N    M M M    RRRR                |
 |           N  NN    M   M    R  R                |
 |           N   N    M   M    R   R               |
 |                                                 |
 +-------------------------------------------------+
 |                                                 |
 | Welcome to Materials Studio CASTEP-NMR          |
 |                                                 |
 | Authors:                                        |
 | J.R. Yates, C.J. Pickard, F. Mauri              |
 |                                                 |
 | Contributors:                                   |
 | T.F.G. Green, S.A. Joyce                        |
 |                                                 |
 | Copyright (c) 2004 - 2015                       |
 |                                                 |
 | Please cite the appropriate publications in all |
 | work arising from your use of CASTEP NMR.       |
 |                                                 |
 | For NMR Shielding Tensors cite:                 |
 |    "All-electron magnetic response with         |
 |    pseudopotentials: NMR chemical shifts",      |
 |    C. J. Pickard, F. Mauri;                     |
 |    Physical Review B63 245101 (2001), and       |
 |                                                 |
 |    "Calculation of NMR Chemical Shifts          |
 |    for extended systems using                   |
 |    Ultrasoft Pseudopotentials",                 |
 |    J. R. Yates, C. J. Pickard and F. Mauri      |
 |    Physical Review B76 024401 (2007)            |
 |                                                 |
 | For Electric Field Gradients cite:              |
 |   "Accurate First Principles Prediction of 17O  |
 |    NMR Parameters in SiO2: Assignment of the    |
 |    Zeolite Ferrierite Spectrum"                 |
 |    M. Profeta, F. Mauri and C. J. Pickard       |
 |    J. Amer. Chem. Soc. 125 541 (2003)           |
 |                                                 |
 | For Spin-Spin (J) Couplings cite:               |
 |   "A first principles theory of NMR J-coupling  |
 |   in solid-state systems"                       |
 |   S.A. Joyce, J.R. Yates, C.J. Pickard, F. Mauri|
 |   J. Chem. Phys. 127 204107 (2007)              |
 |                                                 |
 |   "Relativistic NMR J-coupling with ultrasoft   |
 |   pseudopotentials and the zeroth-order regular |
 |   approximation"                                |
 |   T.F.G. Green and J.R. Yates                   |
 |   J. Chem. Phys. 140 234106 (2014)              |
 |                                                 |
 +-------------------------------------------------+
 
 
 Atomic calculation performed for O: 1s2 2s2 2p4
 
 Converged in 44 iterations to an ae energy of -2040.855 eV
 
 
 Atomic calculation performed for O: 1s2 2s2 2p4
 
 Exceeded max iterations: converged to 0.000000062 eV
 
   ============================================================                
   | Pseudopotential Report - Date of generation 29-03-2022   |                
   ------------------------------------------------------------                
   | Element: O Ionic charge:  6.00 Level of theory: PBE      |                
   | Atomic Solver: ZORA (scalar)                             |                
   |                                                          |                
   |               Reference Electronic Structure             |                
   |         Orbital         Occupation         Energy        |                
   |            2s              2.000           -0.881        |                
   |            2p              4.000           -0.332        |                
   |                                                          |                
   |                 Pseudopotential Definition               |                
   |        Beta     l      e      Rc     scheme   norm       |                
   |          1      0   -0.881   1.100     qc      0         |                
   |          2      0    0.250   1.100     qc      0         |                
   |          3      1   -0.332   1.100     qc      0         |                
   |          4      1    0.250   1.100     qc      0         |                
   |         loc     2    0.000   1.100     pn      0         |                
   |                                                          |                
   | Augmentation charge Rinner = 0.769                       |                
   | Partial core correction Rc = 0.769                       |                
   ------------------------------------------------------------                
   | "2|1.1|15|18|20|20:21(qc=7)"                             |                
   ------------------------------------------------------------                
   |      Author: Chris J. Pickard, Cambridge University      |                
   ============================================================                
 
 Atomic calculation performed for Zr: 1s2 2s2 2p6 3s2 3p6 3d10 4s2 4p6 4d2 5s2
 
 Converged in 52 iterations to an ae energy of -97719.888 eV
 
 
 Atomic calculation performed for Zr: 1s2 2s2 2p6 3s2 3p6 3d10 4s2 4p6 4d2 5s2
 
 Exceeded max iterations: converged to 0.000000936 eV
 
 Warning: ion_atom_descreen_psp: negative charge density encountered
   ============================================================                
   | Pseudopotential Report - Date of generation 29-03-2022   |                
   ------------------------------------------------------------                
   | Element: Zr Ionic charge: 12.00 Level of theory: PBE     |                
   | Atomic Solver: ZORA (scalar)                             |                
   |                                                          |                
   |               Reference Electronic Structure             |                
   |         Orbital         Occupation         Energy        |                
   |            4s              2.000           -2.003        |                
   |            4p              6.000           -1.193        |                
   |            5s              2.000           -0.163        |                
   |            4d              2.000           -0.132        |                
   |                                                          |                
   |                 Pseudopotential Definition               |                
   |        Beta     l      e      Rc     scheme   norm       |                
   |          1      0   -2.003   2.105     qc      0         |                
   |          2      0   -0.163   2.105     qc      0         |                
   |          3      0    0.250   2.105     qc      0         |                
   |          4      1   -1.193   2.105     qc      0         |                
   |          5      1    0.250   2.105     qc      0         |                
   |          6      2   -0.132   2.105     qc      0         |                
   |          7      2    0.250   2.105     qc      0         |                
   |         loc     3    0.000   2.105     pn      0         |                
   |                                                          |                
   | Augmentation charge Rinner = 1.471                       |                
   | Partial core correction Rc = 1.471                       |                
   ------------------------------------------------------------                
   | "3|2.1|7|8|9|40U:50:41:42"                               |                
   ------------------------------------------------------------                
   |      Author: Chris J. Pickard, Cambridge University      |                
   ============================================================                
 
 Atomic calculation performed for Sn:
 1s2 2s2 2p6 3s2 3p6 3d10 4s2 4p6 4d10 5s2 5p2
 
 Converged in 58 iterations to an ae energy of -167539.320 eV
 
 
 Atomic calculation performed for Sn:
 1s2 2s2 2p6 3s2 3p6 3d10 4s2 4p6 4d10 5s2 5p2
 
 Exceeded max iterations: converged to -0.000000491 eV
 
   ============================================================                
   | Pseudopotential Report - Date of generation 29-03-2022   |                
   ------------------------------------------------------------                
   | Element: Sn Ionic charge: 14.00 Level of theory: PBE     |                
   | Atomic Solver: ZORA (scalar)                             |                
   |                                                          |                
   |               Reference Electronic Structure             |                
   |         Orbital         Occupation         Energy        |                
   |            4d             10.000           -0.950        |                
   |            5s              2.000           -0.388        |                
   |            5p              2.000           -0.136        |                
   |                                                          |                
   |                 Pseudopotential Definition               |                
   |        Beta     l      e      Rc     scheme   norm       |                
   |          1      0   -0.388   2.199     qc      0         |                
   |          2      0    0.250   2.199     qc      0         |                
   |          3      1   -0.136   2.199     qc      0         |                
   |          4      1    0.250   2.199     qc      0         |                
   |          5      2   -0.950   2.199     qc      0         |                
   |          6      2    0.250   2.199     qc      0         |                
   |         loc     3    0.000   2.199     pn      0         |                
   |                                                          |                
   | Augmentation charge Rinner = 1.537                       |                
   | Partial core correction Rc = 1.537                       |                
   ------------------------------------------------------------                
   | "3|2.2|7|8|9|50:51:42"                                   |                
   ------------------------------------------------------------                
   |      Author: Chris J. Pickard, Cambridge University      |                
   ============================================================                
 
 Atomic calculation performed for La:
 1s2 2s2 2p6 3s2 3p6 3d10 4s2 4p6 4d10 5s2 5p6 5d1 6s2
 
 Converged in 55 iterations to an ae energy of -230121.495 eV
 
 
 Atomic calculation performed for La:
 1s2 2s2 2p6 3s2 3p6 3d10 4s2 4p6 4d10 5s2 5p6 5d1 6s2
 
 Exceeded max iterations: converged to 0.000001134 eV
 
 Warning: ion_atom_descreen_psp: negative charge density encountered
   ============================================================                
   | Pseudopotential Report - Date of generation 29-03-2022   |                
   ------------------------------------------------------------                
   | Element: La Ionic charge: 11.00 Level of theory: PBE     |                
   | Atomic Solver: ZORA (scalar)                             |                
   |                                                          |                
   |               Reference Electronic Structure             |                
   |         Orbital         Occupation         Energy        |                
   |            5s              2.000           -1.430        |                
   |            5p              6.000           -0.823        |                
   |            6s              2.000           -0.135        |                
   |            5d              1.000           -0.114        |                
   |                                                          |                
   |                 Pseudopotential Definition               |                
   |        Beta     l      e      Rc     scheme   norm       |                
   |          1      0   -1.430   2.298     qc      0         |                
   |          2      0   -0.135   2.298     qc      0         |                
   |          3      0    0.250   2.298     qc      0         |                
   |          4      1   -0.823   2.298     qc      0         |                
   |          5      1    0.250   2.298     qc      0         |                
   |          6      2   -0.114   2.298     qc      0         |                
   |          7      2    0.250   2.298     qc      0         |                
   |         loc     2    0.000   2.298     pn      0         |                
   |                                                          |                
   | Augmentation charge Rinner = 1.606                       |                
   | Partial core correction Rc = 1.606                       |                
   ------------------------------------------------------------                
   | "2|2.3|5|6|7|50U:60:51:52(qc=4.5)"                       |                
   ------------------------------------------------------------                
   |      Author: Chris J. Pickard, Cambridge University      |                
   ============================================================                
 
 Pseudo atomic calculation performed for O 2s2 2p4
 
 Converged in 39 iterations to a total energy of -432.6554 eV
 
 
 Pseudo atomic calculation performed for Zr 4s2 4p6 4d2 5s2
 
 Converged in 38 iterations to a total energy of -1285.4931 eV
 
 
 Pseudo atomic calculation performed for Sn 4d10 5s2 5p2
 
 Converged in 48 iterations to a total energy of -2044.5413 eV
 
 
 Pseudo atomic calculation performed for La 5s2 5p6 5d1 6s2
 
 Converged in 34 iterations to a total energy of -968.0373 eV
 
 Calculation parallelised over 896 processes.
 Data is distributed by G-vector(64-way) and k-point(14-way)

 ************************************ Title ************************************
 nmr testing

 ***************************** General Parameters ******************************
  
 output verbosity                               : normal  (1)
 write checkpoint data to                       : 18.check
 type of calculation                            : Magnetic Resonance
 stress calculation                             : on
 density difference calculation                 : off
 electron localisation func (ELF) calculation   : off
 Hirshfeld analysis                             : off
 unlimited duration calculation
 timing information                             : on
 memory usage estimate                          : on
 write final potential to formatted file        : off
 write final density to formatted file          : off
 write BibTeX reference list                    : on
 write OTFG pseudopotential files               : on
 checkpoint writing                             : both castep_bin and check files
  
 output         length unit                     : A
 output           mass unit                     : amu
 output           time unit                     : ps
 output         charge unit                     : e
 output           spin unit                     : hbar/2
 output         energy unit                     : eV
 output          force unit                     : eV/A
 output       velocity unit                     : A/ps
 output       pressure unit                     : GPa
 output     inv_length unit                     : 1/A
 output      frequency unit                     : cm-1
 output force constant unit                     : eV/A**2
 output         volume unit                     : A**3
 output   IR intensity unit                     : (D/A)**2/amu
 output         dipole unit                     : D
 output         efield unit                     : eV/A/e
 output        entropy unit                     : J/mol/K
  
 wavefunctions paging                           : none
 random number generator seed                   : randomised (103418187)
 data distribution                              : optimal for this architecture
 optimization strategy                          : maximize speed(+++)

 *********************** Exchange-Correlation Parameters ***********************
  
 using functional                               : Perdew Burke Ernzerhof
 relativistic treatment                         : ZORA
 DFT+D: Semi-empirical dispersion correction    : off

 ************************* Pseudopotential Parameters **************************
  
 pseudopotential representation                 : reciprocal space
 <beta|phi> representation                      : reciprocal space
 spin-orbit coupling                            : off

 **************************** Basis Set Parameters *****************************
  
 plane wave basis set cut-off                   :   816.3416   eV
 size of standard grid                          :     1.7500
 size of   fine   gmax                          :    25.6161   1/A
 finite basis set correction                    : automatic
 number of sample energies                      :          3
           sample  spacing                      :     5.0000   eV

 **************************** Electronic Parameters ****************************
  
 number of  electrons                           :  722.0    
 net charge of system                           :  0.000    
 treating system as non-spin-polarized
 number of bands                                :        433

 ********************* Electronic Minimization Parameters **********************
  
 Method: Treating system as metallic with density mixing treatment of electrons,
         and number of  SD  steps               :          1
         and number of  CG  steps               :          4
  
 total energy / atom convergence tol.           : 0.1000E-08   eV
 eigen-energy convergence tolerance             : 0.2438E-09   eV
 max force / atom convergence tol.              : ignored
 convergence tolerance window                   :          3   cycles
 max. number of SCF cycles                      :        250
 number of fixed-spin iterations                :         10
 smearing scheme                                : Gaussian
 smearing width                                 : 0.2000       eV
 Fermi energy convergence tolerance             : 0.2721E-13   eV
 periodic dipole correction                     : NONE

 ************************** Density Mixing Parameters **************************
  
 density-mixing scheme                          : Broyden
 max. length of mixing history                  :         20
 charge density mixing amplitude                : 0.8000    
 cut-off energy for mixing                      :  816.3       eV

 *********************** Population Analysis Parameters ************************
  
 Population analysis with cutoff                :  3.000       A

 ************************ Magnetic Resonance Parameters ************************
  
 Magnetic Resonance Property                    : Chemical Shielding + EFG
 Position Operator Method                       : crystal
 max. number of MagRes CG steps                 :        250
 convergence tolerance window                   :          2   cycles
 energy convergence tolerance                   : 0.1000E-11   eV
 band convergence tolerance                     : 0.1000E-08   eV

 *******************************************************************************
  
 
                           -------------------------------
                                      Unit Cell
                           -------------------------------
        Real Lattice(A)                      Reciprocal Lattice(1/A)
  10.9030888   0.0086979  -0.0022338        0.5762761  -0.0004571   0.0001168
   0.0086427  10.8936148  -0.0143588       -0.0004600   0.5767783   0.0007620
  -0.0022206  -0.0144014  10.8990913        0.0001175   0.0007598   0.5764881
 
                       Lattice parameters(A)       Cell Angles
                    a =   10.903092          alpha =   90.151237
                    b =   10.893628          beta  =   90.023473
                    c =   10.899101          gamma =   89.908820
 
                       Current cell volume = 1294.526079       A**3
 
                           -------------------------------
                                     Cell Contents
                           -------------------------------
                         Total number of ions in cell =   88
                      Total number of species in cell =    4
                        Max number of any one species =   56
 
            xxxxxxxxxxxxxxxxxxxxxxxxxxxxxxxxxxxxxxxxxxxxxxxxxxxxxxxxxxxx
            x  Element    Atom        Fractional coordinates of atoms  x
            x            Number           u          v          w      x
            x----------------------------------------------------------x
            x  O            1         0.125039   0.124944   0.124866   x 
            x  O            2         0.624996   0.125041   0.624804   x 
            x  O            3         0.125293   0.625092   0.624920   x 
            x  O            4         0.625151   0.625096   0.125128   x 
            x  O            5         0.874707   0.374908   0.375080   x 
            x  O            6         0.874961   0.875056   0.875134   x 
            x  O            7         0.374849   0.374904   0.874872   x 
            x  O            8         0.375004   0.874959   0.375196   x 
            x  O            9         0.420146   0.125369   0.124950   x 
            x  O           10         0.329761   0.124639   0.624850   x 
            x  O           11         0.829518   0.624179   0.625731   x 
            x  O           12         0.919815   0.625069   0.124476   x 
            x  O           13         0.125492   0.419741   0.124376   x 
            x  O           14         0.624285   0.329555   0.125439   x 
            x  O           15         0.624631   0.829704   0.626011   x 
            x  O           16         0.124942   0.920413   0.623751   x 
            x  O           17         0.124761   0.124047   0.420516   x 
            x  O           18         0.125234   0.625553   0.330226   x 
            x  O           19         0.625541   0.625434   0.829926   x 
            x  O           20         0.624737   0.124152   0.920330   x 
            x  O           21         0.875947   0.670402   0.374221   x 
            x  O           22         0.874508   0.580259   0.875624   x 
            x  O           23         0.375193   0.079569   0.876146   x 
            x  O           24         0.375369   0.170296   0.373989   x 
            x  O           25         0.170482   0.375821   0.374269   x 
            x  O           26         0.079990   0.874533   0.375028   x 
            x  O           27         0.579854   0.874631   0.875050   x 
            x  O           28         0.670184   0.375667   0.874670   x 
            x  O           29         0.875541   0.376021   0.079910   x 
            x  O           30         0.374459   0.374566   0.170074   x 
            x  O           31         0.375281   0.874244   0.670315   x 
            x  O           32         0.875239   0.875953   0.579484   x 
            x  O           33         0.670239   0.875361   0.375150   x 
            x  O           34         0.080185   0.374931   0.875524   x 
            x  O           35         0.375715   0.670445   0.874561   x 
            x  O           36         0.875058   0.079587   0.376249   x 
            x  O           37         0.874766   0.374447   0.669774   x 
            x  O           38         0.375263   0.875848   0.079670   x 
            x  O           39         0.124053   0.329598   0.625779   x 
            x  O           40         0.624807   0.920431   0.123854   x 
            x  O           41         0.920010   0.125467   0.624972   x 
            x  O           42         0.329816   0.624333   0.125330   x 
            x  O           43         0.124459   0.623979   0.920090   x 
            x  O           44         0.624719   0.125756   0.329685   x 
            x  O           45         0.420433   0.625866   0.625235   x 
            x  O           46         0.829601   0.124954   0.124959   x 
            x  O           47         0.124746   0.126268   0.829583   x 
            x  O           48         0.625052   0.624702   0.420373   x 
            x  O           49         0.875157   0.170095   0.873964   x 
            x  O           50         0.373770   0.579690   0.374814   x 
            x  O           51         0.170399   0.875046   0.875041   x 
            x  O           52         0.579567   0.374134   0.374765   x 
            x  O           53         0.875254   0.873732   0.170417   x 
            x  O           54         0.374948   0.375298   0.579627   x 
            x  O           55         0.124843   0.829905   0.126036   x 
            x  O           56         0.626230   0.420310   0.625186   x 
            x  Zr           1         0.500000   0.500000   0.500000   x 
            x  Zr           2         0.249611   0.749831   0.000147   x 
            x  Zr           3         0.749974  -0.000006   0.250096   x 
            x  Zr           4         0.750389   0.250169  -0.000147   x 
            x  Zr           5         0.250026   0.000006   0.749904   x 
            x  Zr           6         0.250219   0.249970   0.499979   x 
            x  Zr           7         0.749781   0.750030   0.500021   x 
            x  Sn           1        -0.000505   0.250525   0.750336   x 
            x  Sn           2         0.000505   0.749475   0.249664   x 
            x  Sn           3         0.500000   0.000000  -0.000000   x 
            x  Sn           4         0.750522   0.499609   0.750501   x 
            x  Sn           5         0.249478   0.500391   0.249499   x 
            x  Sn           6        -0.000000   0.500000   0.000000   x 
            x  Sn           7         0.499844   0.250011   0.249850   x 
            x  Sn           8         0.500156   0.749989   0.750150   x 
            x  Sn           9         0.000000  -0.000000   0.500000   x 
            x  La           1         0.000000   0.000000  -0.000000   x 
            x  La           2         0.749757   0.249987   0.499767   x 
            x  La           3         0.250242   0.500079   0.749815   x 
            x  La           4         0.500004   0.749971   0.250024   x 
            x  La           5         0.250243   0.750013   0.500233   x 
            x  La           6         0.749758   0.499921   0.250185   x 
            x  La           7         0.499996   0.250029   0.749976   x 
            x  La           8         0.000000   0.500000   0.500000   x 
            x  La           9         0.749977   0.750252   0.000231   x 
            x  La          10         0.249971   0.000031   0.250060   x 
            x  La          11         0.250023   0.249748  -0.000231   x 
            x  La          12         0.750029  -0.000031   0.749940   x 
            x  La          13         0.500000   0.000000   0.500000   x 
            x  La          14         0.000064   0.750227   0.749814   x 
            x  La          15        -0.000064   0.249773   0.250186   x 
            x  La          16         0.500000   0.500000  -0.000000   x 
            xxxxxxxxxxxxxxxxxxxxxxxxxxxxxxxxxxxxxxxxxxxxxxxxxxxxxxxxxxxx
 
 
                         No user defined ionic velocities
 
                           -------------------------------
                                   Details of Species
                           -------------------------------
 
                               Mass of species in AMU
                                    O   15.9994000
                                    Zr   91.2240000
                                    Sn  118.7100000
                                    La  138.9055000
 
                          Electric Quadrupole Moment (Barn)
                                    O   -0.0255800 Isotope 17
                                    Zr   -0.1760000 Isotope 91
                                    Sn    1.0000000 No Isotope Defined
                                    La    0.2000000 Isotope139
 
                          Files used for pseudopotentials:
                                    O 2|1.1|15|18|20|20:21(qc=7)
                                    Zr 3|2.1|7|8|9|40U:50:41:42
                                    Sn 3|2.2|7|8|9|50:51:42
                                    La 2|2.3|5|6|7|50U:60:51:52(qc=4.5)
 
                           -------------------------------
                              k-Points For BZ Sampling
                           -------------------------------
                       MP grid size for SCF calculation is  3  3  3
                            with an offset of   0.000  0.000  0.000
                       Number of kpoints used =   14
 
                           -------------------------------
                               Symmetry and Constraints
                           -------------------------------
 
                      Maximum deviation from symmetry =  0.00000         ANG
 
         There are no symmetry operations specified or generated for this cell
                      Number of ionic constraints     = 3
                      Point group of crystal =     1: C1, 1, 1
                      Space group of crystal =     2: P-1, -P 1
 
 
                         Centre of mass is constrained
             Set iprint > 1 for details of linear ionic constraints
 
                         Number of cell constraints= 0
                         Cell constraints are:  1 2 3 4 5 6
 
                         External pressure/stress (GPa)
                          0.00000   0.00000   0.00000
                                    0.00000   0.00000
                                              0.00000
  
+---------------- MEMORY AND SCRATCH DISK ESTIMATES PER PROCESS --------------+
|                                                     Memory          Disk    |
| Baseline code, static data and system overhead      839.0 MB         0.0 MB |
| BLAS internal memory storage                          0.0 MB         0.0 MB |
| Model and support data                              149.3 MB         0.0 MB |
| Electronic energy minimisation requirements          28.3 MB         0.0 MB |
| Force calculation requirements                        1.5 MB         0.0 MB |
| Stress calculation requirements                       1.8 MB         0.0 MB |
|                                               ----------------------------- |
| Approx. total storage required per process         1016.6 MB         0.0 MB |
|                                                                             |
| Requirements will fluctuate during execution and may exceed these estimates |
+-----------------------------------------------------------------------------+
Calculating finite basis set correction with  3 cut-off energies.
Calculating total energy with cut-off of  806.342eV.
------------------------------------------------------------------------ <-- SCF
SCF loop      Energy           Fermi           Energy gain       Timer   <-- SCF
                               energy          per atom          (sec)   <-- SCF
------------------------------------------------------------------------ <-- SCF
Initial  -5.72085193E+004  0.00000000E+000                        34.95  <-- SCF
      1  -6.52857842E+004  7.43503637E+000   9.17871013E+001      45.72  <-- SCF
      2  -6.78356582E+004  6.60869808E+000   2.89758412E+001      53.13  <-- SCF
      3  -6.79195556E+004  6.35749836E+000   9.53378811E-001      61.35  <-- SCF
      4  -6.79119872E+004  7.56835647E+000  -8.60047123E-002      70.89  <-- SCF
      5  -6.78116677E+004  6.90405821E+000  -1.13999364E+000      80.27  <-- SCF
      6  -6.78129878E+004  6.82289705E+000   1.50003578E-002      92.58  <-- SCF
      7  -6.78126369E+004  6.89093117E+000  -3.98709033E-003     102.56  <-- SCF
      8  -6.78127283E+004  6.90004431E+000   1.03843664E-003     116.20  <-- SCF
      9  -6.78127523E+004  6.90577251E+000   2.72948142E-004     127.38  <-- SCF
     10  -6.78127512E+004  6.90534378E+000  -1.23937701E-005     137.89  <-- SCF
     11  -6.78127515E+004  6.90768351E+000   2.95533790E-006     148.79  <-- SCF
     12  -6.78127518E+004  6.90867562E+000   4.20444611E-006     160.02  <-- SCF
     13  -6.78127519E+004  6.90885757E+000   4.26952343E-007     170.22  <-- SCF
     14  -6.78127519E+004  6.90895906E+000  -4.25549547E-008     179.89  <-- SCF
     15  -6.78127519E+004  6.90895428E+000  -2.25240480E-009     190.28  <-- SCF
     16  -6.78127519E+004  6.90892258E+000  -2.54741948E-009     199.29  <-- SCF
     17  -6.78127519E+004  6.90890167E+000  -3.62173417E-009     207.40  <-- SCF
     18  -6.78127519E+004  6.90887198E+000  -6.52322753E-010     214.48  <-- SCF
     19  -6.78127519E+004  6.90884817E+000   1.16852815E-010     221.26  <-- SCF
------------------------------------------------------------------------ <-- SCF
 
Final energy, E             =  -67812.75186873     eV
Final free energy (E-TS)    =  -67812.75186873     eV
(energies not corrected for finite basis set)
 
NB est. 0K energy (E-0.5TS)      =  -67812.75186873     eV
 
Calculating total energy with cut-off of  811.342eV.
------------------------------------------------------------------------ <-- SCF
SCF loop      Energy           Fermi           Energy gain       Timer   <-- SCF
                               energy          per atom          (sec)   <-- SCF
------------------------------------------------------------------------ <-- SCF
Initial  -6.78127519E+004  0.00000000E+000                       223.38  <-- SCF
      1  -6.78127544E+004  6.90883811E+000   2.85705216E-005     232.02  <-- SCF
      2  -6.78127544E+004  6.90883811E+000   2.04597889E-010     238.50  <-- SCF
      3  -6.78127544E+004  6.90883380E+000   1.67936197E-008     244.79  <-- SCF
      4  -6.78127544E+004  6.90884314E+000   5.29704637E-010     251.03  <-- SCF
      5  -6.78127544E+004  6.90884144E+000  -1.32180079E-010     257.31  <-- SCF
------------------------------------------------------------------------ <-- SCF
 
Final energy, E             =  -67812.75438446     eV
Final free energy (E-TS)    =  -67812.75438446     eV
(energies not corrected for finite basis set)
 
NB est. 0K energy (E-0.5TS)      =  -67812.75438446     eV
 
Calculating total energy with cut-off of  816.342eV.
------------------------------------------------------------------------ <-- SCF
SCF loop      Energy           Fermi           Energy gain       Timer   <-- SCF
                               energy          per atom          (sec)   <-- SCF
------------------------------------------------------------------------ <-- SCF
Initial  -6.78127544E+004  0.00000000E+000                       259.43  <-- SCF
      1  -6.78127573E+004  6.90884529E+000   3.31506290E-005     268.03  <-- SCF
      2  -6.78127573E+004  6.90884529E+000   2.02066781E-010     274.33  <-- SCF
      3  -6.78127573E+004  6.90883957E+000   2.00844818E-008     280.60  <-- SCF
      4  -6.78127573E+004  6.90884178E+000   6.42057704E-010     286.93  <-- SCF
      5  -6.78127573E+004  6.90883931E+000  -2.37642908E-011     293.22  <-- SCF
------------------------------------------------------------------------ <-- SCF
 
Final energy, E             =  -67812.75730355     eV
Final free energy (E-TS)    =  -67812.75730355     eV
(energies not corrected for finite basis set)
 
NB est. 0K energy (E-0.5TS)      =  -67812.75730355     eV
 
 For future reference: finite basis dEtot/dlog(Ecut) =      -0.440553eV
 Total energy corrected for finite basis set =  -67812.757304 eV
 
  =====================================================================
  +       Calculation of Nuclear Magnetic Resonance Parameters        +
  + ================================================================= +
 
  Starting Calculation of Electric Field Gradient Tensors         |<-- EFG
  +---------------- MEMORY AND SCRATCH DISK ESTIMATES PER PROCESS --------------+
  |                                                     Memory          Disk    |
  | Model and support data                              151.0 MB         0.0 MB |
  | NMR EFG calculation requirements                     27.4 MB         0.0 MB |
  |                                               ----------------------------- |
  | Approx. total storage required per process          178.4 MB         0.0 MB |
  |                                                                             |
  | Requirements will fluctuate during execution and may exceed these estimates |
  +-----------------------------------------------------------------------------+
  Total Time for EFG Tensors                      32.86 sec       |<-- EFG
 
  Starting Calculation of Chemical Shielding Tensors              |<-- NMR
  +---------------- MEMORY AND SCRATCH DISK ESTIMATES PER PROCESS --------------+
  |                                                     Memory          Disk    |
  | Model and support data                              151.0 MB         0.0 MB |
  | NMR chemical shift calculation requirements          90.6 MB         0.0 MB |
  |                                               ----------------------------- |
  | Approx. total storage required per process          241.6 MB         0.0 MB |
  |                                                                             |
  | Requirements will fluctuate during execution and may exceed these estimates |
  +-----------------------------------------------------------------------------+
  Starting k-point:   1 of   1                                    |<-- NMR
  Total Time for step 1 of 6:                    268.02 sec       |<-- NMR
  Total Time for step 2 of 6:                    269.10 sec       |<-- NMR
  Total Time for step 3 of 6:                    270.57 sec       |<-- NMR
  Total Time for step 4 of 6:                    269.62 sec       |<-- NMR
  Total Time for step 5 of 6:                    269.81 sec       |<-- NMR
  Total Time for step 6 of 6:                    270.00 sec       |<-- NMR
  Total Time for Chemical Shielding Tensors     2375.60 sec       |<-- NMR
 
  ========================================================================
  |           Chemical Shielding and Electric Field Gradient Tensors     |
  |----------------------------------------------------------------------|
  |     Nucleus                Shielding tensor             EFG Tensor   |
  |  Species       Ion    Iso(ppm)   Aniso(ppm)  Asym    Cq(MHz)    Eta  |
  |    O           1     -317.97     -22.84      0.68   6.392E-02   0.44 |
  |    O           2     -317.57     -18.30      0.87   5.165E-02   0.88 |
  |    O           3     -318.81     -12.97      0.87   6.854E-02   0.43 |
  |    O           4     -317.93     -19.97      0.58   4.064E-02   0.82 |
  |    O           5     -318.81     -12.97      0.87   6.854E-02   0.43 |
  |    O           6     -317.97     -22.84      0.68   6.391E-02   0.44 |
  |    O           7     -317.93     -19.97      0.58   4.064E-02   0.82 |
  |    O           8     -317.57     -18.30      0.87   5.165E-02   0.88 |
  |    O           9       -1.16      70.30      0.49   3.920E+00   0.87 |
  |    O          10     -162.20     151.32      0.84   1.068E+00   0.71 |
  |    O          11      -86.46      84.36      0.18  -3.143E+00   0.05 |
  |    O          12      -12.32      59.56      0.43   3.928E+00   0.86 |
  |    O          13      -10.05      55.82      0.81   3.859E+00   0.90 |
  |    O          14      -85.71      85.42      0.31  -3.166E+00   0.06 |
  |    O          15      -86.76      87.35      0.16  -3.198E+00   0.07 |
  |    O          16      -85.29      85.44      0.10  -3.223E+00   0.08 |
  |    O          17      -85.41      84.55      0.19  -3.147E+00   0.06 |
  |    O          18      -12.04      57.41      0.44   3.920E+00   0.85 |
  |    O          19       -0.38      67.41      0.78   3.859E+00   0.91 |
  |    O          20      -86.70      82.46      0.16  -3.165E+00   0.06 |
  |    O          21      -85.23      85.53      0.08  -3.205E+00   0.06 |
  |    O          22      -10.05      55.82      0.81   3.859E+00   0.90 |
  |    O          23      -84.50      83.67      0.08  -3.231E+00   0.08 |
  |    O          24      -86.76      87.35      0.16  -3.198E+00   0.07 |
  |    O          25      -86.46      84.37      0.18  -3.143E+00   0.05 |
  |    O          26       -5.14      68.76      0.48   3.904E+00   0.86 |
  |    O          27       -1.17      70.30      0.49   3.920E+00   0.87 |
  |    O          28      -89.61      83.82      0.22  -3.152E+00   0.07 |
  |    O          29      -89.37      88.63      0.15  -3.199E+00   0.06 |
  |    O          30       -0.38      67.42      0.78   3.859E+00   0.91 |
  |    O          31      -90.01      95.59      0.32  -3.190E+00   0.10 |
  |    O          32      -85.41      84.54      0.19  -3.147E+00   0.06 |
  |    O          33     -162.20     151.32      0.84   1.068E+00   0.71 |
  |    O          34      -12.32      59.56      0.43   3.928E+00   0.86 |
  |    O          35      -85.71      85.42      0.31  -3.166E+00   0.06 |
  |    O          36      -85.29      85.44      0.10  -3.223E+00   0.08 |
  |    O          37      -12.04      57.42      0.44   3.920E+00   0.85 |
  |    O          38      -86.70      82.45      0.16  -3.165E+00   0.06 |
  |    O          39      -85.23      85.53      0.08  -3.205E+00   0.06 |
  |    O          40      -84.51      83.68      0.08  -3.231E+00   0.08 |
  |    O          41       -5.14      68.76      0.48   3.904E+00   0.86 |
  |    O          42      -89.61      83.82      0.22  -3.152E+00   0.07 |
  |    O          43      -89.37      88.64      0.15  -3.199E+00   0.06 |
  |    O          44      -90.02      95.59      0.32  -3.190E+00   0.10 |
  |    O          45      -89.02      94.72      0.32  -3.224E+00   0.09 |
  |    O          46     -161.95     148.16      0.83   1.091E+00   0.63 |
  |    O          47      -86.08      85.94      0.13  -3.206E+00   0.07 |
  |    O          48     -161.31     153.09      0.83   1.089E+00   0.69 |
  |    O          49      -88.90      88.11      0.08  -3.201E+00   0.07 |
  |    O          50      -87.74      83.08      0.06  -3.203E+00   0.09 |
  |    O          51     -161.95     148.16      0.83   1.091E+00   0.63 |
  |    O          52      -89.02      94.71      0.32  -3.224E+00   0.09 |
  |    O          53      -86.08      85.93      0.13  -3.206E+00   0.07 |
  |    O          54     -161.31     153.08      0.83   1.089E+00   0.69 |
  |    O          55      -88.90      88.11      0.08  -3.201E+00   0.07 |
  |    O          56      -87.74      83.07      0.06  -3.203E+00   0.09 |
  |    Zr          1     1624.40    -127.64      0.20  -3.686E+01   0.14 |
  |    Zr          2     1607.92    -116.75      0.11  -3.522E+01   0.07 |
  |    Zr          3     1624.40    -126.97      0.19  -3.649E+01   0.10 |
  |    Zr          4     1607.92    -116.75      0.11  -3.522E+01   0.07 |
  |    Zr          5     1624.40    -126.97      0.19  -3.649E+01   0.10 |
  |    Zr          6     1622.56    -120.92      0.13  -3.567E+01   0.09 |
  |    Zr          7     1622.56    -120.92      0.13  -3.567E+01   0.09 |
  |    Sn          1     3255.14     -58.54      0.46   1.257E+02   0.08 |
  |    Sn          2     3255.14     -58.54      0.46   1.257E+02   0.08 |
  |    Sn          3     3256.86     -59.12      0.25   1.270E+02   0.13 |
  |    Sn          4     3255.05     -57.65      0.51   1.232E+02   0.07 |
  |    Sn          5     3255.05     -57.65      0.51   1.232E+02   0.07 |
  |    Sn          6     3253.76     -63.46      0.76   1.221E+02   0.17 |
  |    Sn          7     3256.50     -52.29      0.15   1.286E+02   0.07 |
  |    Sn          8     3256.50     -52.29      0.15   1.286E+02   0.07 |
  |    Sn          9     3256.69     -59.73      0.23   1.271E+02   0.12 |
  |    La          1     4707.29     776.17      0.09  -8.552E+01   0.16 |
  |    La          2     4594.59     519.43      0.10  -7.603E+01   0.09 |
  |    La          3     4655.71     650.09      0.09  -8.149E+01   0.14 |
  |    La          4     4707.45     763.85      0.03  -8.621E+01   0.07 |
  |    La          5     4594.59     519.43      0.10  -7.603E+01   0.09 |
  |    La          6     4655.71     650.09      0.09  -8.149E+01   0.14 |
  |    La          7     4707.45     763.85      0.03  -8.621E+01   0.07 |
  |    La          8     4609.07     535.94      0.07  -7.910E+01   0.19 |
  |    La          9     4541.20     385.88      0.09  -7.313E+01   0.10 |
  |    La         10     4602.06     541.30      0.09  -7.764E+01   0.17 |
  |    La         11     4541.20     385.88      0.09  -7.313E+01   0.10 |
  |    La         12     4602.06     541.30      0.09  -7.764E+01   0.17 |
  |    La         13     4705.18     783.24      0.10  -8.474E+01   0.15 |
  |    La         14     4662.29     652.22      0.07  -8.352E+01   0.14 |
  |    La         15     4662.28     652.22      0.07  -8.352E+01   0.14 |
  |    La         16     4608.62     537.54      0.06  -7.892E+01   0.16 |
  ========================================================================
 
 *********************** Forces ***********************
 *                                                    *
 *            Cartesian components (eV/A)             *
 * -------------------------------------------------- *
 *                   x            y            z      *
 *                                                    *
 * O         1     -0.00574     -0.00708      0.00675 *
 * O         2     -0.00342     -0.00680      0.00631 *
 * O         3     -0.00862     -0.00659      0.00517 *
 * O         4     -0.00817     -0.00859      0.00234 *
 * O         5      0.00862      0.00659     -0.00517 *
 * O         6      0.00574      0.00708     -0.00675 *
 * O         7      0.00817      0.00859     -0.00234 *
 * O         8      0.00342      0.00680     -0.00631 *
 * O         9     -0.01024      0.00193     -0.01529 *
 * O        10      0.02106      0.01293     -0.02735 *
 * O        11      0.00891     -0.00901      0.01235 *
 * O        12      0.00276      0.00251     -0.01087 *
 * O        13      0.01427     -0.01723     -0.01286 *
 * O        14     -0.01561     -0.00347     -0.00933 *
 * O        15      0.02088     -0.01193      0.01976 *
 * O        16     -0.00300      0.01165     -0.02887 *
 * O        17      0.00076     -0.01457     -0.00016 *
 * O        18      0.01655     -0.00766      0.00467 *
 * O        19      0.02784      0.00299      0.02269 *
 * O        20      0.00665     -0.01301      0.00535 *
 * O        21      0.00640      0.00053      0.01155 *
 * O        22     -0.01427      0.01723      0.01286 *
 * O        23     -0.00205     -0.01432      0.02963 *
 * O        24     -0.02088      0.01193     -0.01976 *
 * O        25     -0.00891      0.00901     -0.01235 *
 * O        26      0.00595     -0.00243      0.01094 *
 * O        27      0.01024     -0.00193      0.01529 *
 * O        28      0.00201      0.02386     -0.00079 *
 * O        29      0.00009      0.00914      0.00113 *
 * O        30     -0.02784     -0.00299     -0.02269 *
 * O        31      0.01029     -0.02154      0.03005 *
 * O        32     -0.00076      0.01457      0.00016 *
 * O        33     -0.02106     -0.01293      0.02735 *
 * O        34     -0.00276     -0.00251      0.01087 *
 * O        35      0.01562      0.00347      0.00933 *
 * O        36      0.00300     -0.01165      0.02887 *
 * O        37     -0.01655      0.00766     -0.00467 *
 * O        38     -0.00665      0.01301     -0.00535 *
 * O        39     -0.00640     -0.00053     -0.01155 *
 * O        40      0.00205      0.01432     -0.02963 *
 * O        41     -0.00595      0.00243     -0.01094 *
 * O        42     -0.00201     -0.02386      0.00079 *
 * O        43     -0.00009     -0.00914     -0.00113 *
 * O        44     -0.01029      0.02154     -0.03006 *
 * O        45      0.02871      0.02673      0.01841 *
 * O        46      0.03161      0.01339     -0.00844 *
 * O        47     -0.00174      0.03444     -0.01921 *
 * O        48      0.02775      0.01240     -0.02246 *
 * O        49     -0.01321      0.01118     -0.01867 *
 * O        50     -0.04042     -0.01892     -0.01093 *
 * O        51     -0.03161     -0.01339      0.00845 *
 * O        52     -0.02871     -0.02673     -0.01841 *
 * O        53      0.00173     -0.03444      0.01921 *
 * O        54     -0.02775     -0.01240      0.02246 *
 * O        55      0.01321     -0.01118      0.01867 *
 * O        56      0.04042      0.01892      0.01093 *
 * Zr        1     -0.00000      0.00000      0.00000 *
 * Zr        2     -0.00640     -0.00110     -0.00168 *
 * Zr        3     -0.00926     -0.00677      0.01182 *
 * Zr        4      0.00640      0.00110      0.00168 *
 * Zr        5      0.00926      0.00677     -0.01182 *
 * Zr        6      0.00770     -0.00054      0.02533 *
 * Zr        7     -0.00770      0.00054     -0.02533 *
 * Sn        1     -0.00516      0.00105      0.01912 *
 * Sn        2      0.00516     -0.00105     -0.01912 *
 * Sn        3     -0.00000      0.00000     -0.00000 *
 * Sn        4      0.00062     -0.02313      0.00883 *
 * Sn        5     -0.00062      0.02313     -0.00883 *
 * Sn        6      0.00000      0.00000     -0.00000 *
 * Sn        7      0.01327     -0.00624      0.01910 *
 * Sn        8     -0.01327      0.00624     -0.01910 *
 * Sn        9      0.00000      0.00000      0.00000 *
 * La        1     -0.00000      0.00000     -0.00000 *
 * La        2     -0.00904     -0.00769      0.01141 *
 * La        3     -0.00092     -0.00397      0.00125 *
 * La        4     -0.01635      0.00466      0.00586 *
 * La        5      0.00904      0.00769     -0.01141 *
 * La        6      0.00092      0.00397     -0.00125 *
 * La        7      0.01635     -0.00466     -0.00586 *
 * La        8      0.00000     -0.00000      0.00000 *
 * La        9      0.00554     -0.00331      0.00172 *
 * La       10      0.00321     -0.01458      0.00797 *
 * La       11     -0.00554      0.00331     -0.00172 *
 * La       12     -0.00321      0.01458     -0.00797 *
 * La       13     -0.00000     -0.00000      0.00000 *
 * La       14     -0.00460     -0.00244      0.00258 *
 * La       15      0.00460      0.00244     -0.00258 *
 * La       16     -0.00000     -0.00000     -0.00000 *
 *                                                    *
 ******************************************************
 
 ***************** Stress Tensor *****************
 *                                               *
 *          Cartesian components (GPa)           *
 * --------------------------------------------- *
 *             x             y             z     *
 *                                               *
 *  x      0.043483      0.004617      0.032183  *
 *  y      0.004617     -0.006180     -0.023847  *
 *  z      0.032183     -0.023847      0.022838  *
 *                                               *
 *  Pressure:   -0.0200                          *
 *                                               *
 *************************************************
 
 Pseudo atomic calculation performed for O 2s2 2p4
 
 Converged in 39 iterations to a total energy of -432.6554 eV
 
 
 Pseudo atomic calculation performed for Zr 4s2 4p6 4d2 5s2
 
 Converged in 38 iterations to a total energy of -1285.4931 eV
 
 
 Pseudo atomic calculation performed for Sn 4d10 5s2 5p2
 
 Converged in 48 iterations to a total energy of -2044.5413 eV
 
 
 Pseudo atomic calculation performed for La 5s2 5p6 5d1 6s2
 
 Converged in 34 iterations to a total energy of -968.0373 eV
 
Charge spilling parameter for spin component 1 = 0.25%
 
     Atomic Populations (Mulliken)
     -----------------------------
Species   Ion     s      p      d      f     Total  Charge (e)
==============================================================
  O        1     1.87   5.00   0.00   0.00   6.87    -0.87
  O        2     1.87   5.00   0.00   0.00   6.87    -0.87
  O        3     1.87   5.00   0.00   0.00   6.87    -0.87
  O        4     1.87   5.00   0.00   0.00   6.87    -0.87
  O        5     1.87   5.00   0.00   0.00   6.87    -0.87
  O        6     1.87   5.00   0.00   0.00   6.87    -0.87
  O        7     1.87   5.00   0.00   0.00   6.87    -0.87
  O        8     1.87   5.00   0.00   0.00   6.87    -0.87
  O        9     1.88   5.03   0.00   0.00   6.91    -0.91
  O       10     1.86   4.95   0.00   0.00   6.80    -0.80
  O       11     1.87   4.99   0.00   0.00   6.86    -0.86
  O       12     1.88   5.03   0.00   0.00   6.91    -0.91
  O       13     1.88   5.03   0.00   0.00   6.91    -0.91
  O       14     1.87   4.99   0.00   0.00   6.86    -0.86
  O       15     1.87   4.99   0.00   0.00   6.86    -0.86
  O       16     1.87   4.99   0.00   0.00   6.86    -0.86
  O       17     1.87   4.99   0.00   0.00   6.86    -0.86
  O       18     1.88   5.03   0.00   0.00   6.91    -0.91
  O       19     1.88   5.03   0.00   0.00   6.91    -0.91
  O       20     1.87   4.99   0.00   0.00   6.86    -0.86
  O       21     1.87   4.99   0.00   0.00   6.86    -0.86
  O       22     1.88   5.03   0.00   0.00   6.91    -0.91
  O       23     1.87   4.99   0.00   0.00   6.86    -0.86
  O       24     1.87   4.99   0.00   0.00   6.86    -0.86
  O       25     1.87   4.99   0.00   0.00   6.86    -0.86
  O       26     1.88   5.03   0.00   0.00   6.91    -0.91
  O       27     1.88   5.03   0.00   0.00   6.91    -0.91
  O       28     1.87   4.99   0.00   0.00   6.86    -0.86
  O       29     1.87   4.99   0.00   0.00   6.86    -0.86
  O       30     1.88   5.03   0.00   0.00   6.91    -0.91
  O       31     1.87   4.99   0.00   0.00   6.86    -0.86
  O       32     1.87   4.99   0.00   0.00   6.86    -0.86
  O       33     1.86   4.95   0.00   0.00   6.80    -0.80
  O       34     1.88   5.03   0.00   0.00   6.91    -0.91
  O       35     1.87   4.99   0.00   0.00   6.86    -0.86
  O       36     1.87   4.99   0.00   0.00   6.86    -0.86
  O       37     1.88   5.03   0.00   0.00   6.91    -0.91
  O       38     1.87   4.99   0.00   0.00   6.86    -0.86
  O       39     1.87   4.99   0.00   0.00   6.86    -0.86
  O       40     1.87   4.99   0.00   0.00   6.86    -0.86
  O       41     1.88   5.03   0.00   0.00   6.91    -0.91
  O       42     1.87   4.99   0.00   0.00   6.86    -0.86
  O       43     1.87   4.99   0.00   0.00   6.86    -0.86
  O       44     1.87   4.99   0.00   0.00   6.86    -0.86
  O       45     1.87   4.99   0.00   0.00   6.86    -0.86
  O       46     1.86   4.95   0.00   0.00   6.80    -0.80
  O       47     1.87   4.99   0.00   0.00   6.86    -0.86
  O       48     1.86   4.95   0.00   0.00   6.80    -0.80
  O       49     1.87   4.99   0.00   0.00   6.86    -0.86
  O       50     1.87   4.99   0.00   0.00   6.86    -0.86
  O       51     1.86   4.95   0.00   0.00   6.80    -0.80
  O       52     1.87   4.99   0.00   0.00   6.86    -0.86
  O       53     1.87   4.99   0.00   0.00   6.86    -0.86
  O       54     1.86   4.95   0.00   0.00   6.80    -0.80
  O       55     1.87   4.99   0.00   0.00   6.86    -0.86
  O       56     1.87   4.99   0.00   0.00   6.86    -0.86
  Zr       1     2.37   6.49   1.92   0.00  10.78     1.22
  Zr       2     2.37   6.50   1.92   0.00  10.78     1.22
  Zr       3     2.37   6.49   1.92   0.00  10.78     1.22
  Zr       4     2.37   6.50   1.92   0.00  10.78     1.22
  Zr       5     2.37   6.49   1.92   0.00  10.78     1.22
  Zr       6     2.36   6.49   1.92   0.00  10.77     1.23
  Zr       7     2.36   6.49   1.92   0.00  10.77     1.23
  Sn       1     1.05   1.31  10.00   0.00  12.36     1.64
  Sn       2     1.05   1.31  10.00   0.00  12.36     1.64
  Sn       3     1.05   1.31  10.00   0.00  12.36     1.64
  Sn       4     1.05   1.31  10.00   0.00  12.36     1.64
  Sn       5     1.05   1.31  10.00   0.00  12.36     1.64
  Sn       6     1.05   1.31  10.00   0.00  12.36     1.64
  Sn       7     1.05   1.31  10.00   0.00  12.36     1.64
  Sn       8     1.05   1.31  10.00   0.00  12.36     1.64
  Sn       9     1.05   1.31  10.00   0.00  12.36     1.64
  La       1     2.04   6.16   1.19   0.00   9.39     1.61
  La       2     2.10   6.18   1.19   0.00   9.47     1.53
  La       3     2.06   6.17   1.19   0.00   9.43     1.57
  La       4     2.02   6.16   1.19   0.00   9.37     1.63
  La       5     2.10   6.18   1.19   0.00   9.47     1.53
  La       6     2.06   6.17   1.19   0.00   9.43     1.57
  La       7     2.02   6.16   1.19   0.00   9.37     1.63
  La       8     2.06   6.19   1.19   0.00   9.44     1.56
  La       9     2.13   6.19   1.19   0.00   9.51     1.49
  La      10     2.07   6.18   1.19   0.00   9.45     1.55
  La      11     2.13   6.19   1.19   0.00   9.51     1.49
  La      12     2.07   6.18   1.19   0.00   9.45     1.55
  La      13     2.02   6.16   1.20   0.00   9.37     1.63
  La      14     2.04   6.18   1.19   0.00   9.41     1.59
  La      15     2.04   6.18   1.19   0.00   9.41     1.59
  La      16     2.06   6.19   1.19   0.00   9.45     1.55
==============================================================
 
            Bond              Population      Length (A)
============================================================
         O 23 -- Sn 3              0.35        2.10385
         O 40 -- Sn 3              0.35        2.10385
         O 16 -- Sn 9              0.35        2.10417
         O 36 -- Sn 9              0.35        2.10417
         O 45 -- Sn 8              0.34        2.10487
         O 52 -- Sn 7              0.34        2.10487
         O 55 -- Sn 2              0.34        2.10538
         O 49 -- Sn 1              0.34        2.10538
         O 28 -- Sn 4              0.35        2.10622
         O 42 -- Sn 5              0.35        2.10622
         O 43 -- Sn 6              0.35        2.10643
         O 29 -- Sn 6              0.35        2.10643
         O 24 -- Sn 7              0.34        2.10667
         O 15 -- Sn 8              0.34        2.10667
         O 17 -- Sn 9              0.34        2.10711
         O 32 -- Sn 9              0.34        2.10711
         O 21 -- Sn 2              0.35        2.10730
         O 39 -- Sn 1              0.35        2.10730
         O 35 -- Sn 8              0.34        2.10757
         O 14 -- Sn 7              0.34        2.10757
         O 18 -- Sn 2              0.34        2.10765
         O 37 -- Sn 1              0.34        2.10765
         O 31 -- Sn 8              0.34        2.10771
         O 44 -- Sn 7              0.34        2.10771
         O 53 -- Sn 2              0.34        2.10772
         O 47 -- Sn 1              0.34        2.10772
         O 56 -- Sn 4              0.34        2.10811
         O 50 -- Sn 5              0.34        2.10811
         O 9  -- Sn 7              0.34        2.10829
         O 27 -- Sn 8              0.34        2.10829
         O 20 -- Sn 3              0.34        2.10852
         O 38 -- Sn 3              0.34        2.10852
         O 11 -- Sn 4              0.35        2.10879
         O 25 -- Sn 5              0.35        2.10879
         O 34 -- Sn 6              0.33        2.10917
         O 12 -- Sn 6              0.33        2.10917
         O 22 -- Sn 4              0.34        2.11069
         O 13 -- Sn 5              0.34        2.11069
         O 18 -- Sn 5              0.33        2.11117
         O 37 -- Sn 4              0.33        2.11117
         O 9  -- Sn 3              0.33        2.11311
         O 27 -- Sn 3              0.33        2.11311
         O 30 -- Sn 7              0.33        2.11314
         O 19 -- Sn 8              0.33        2.11314
         O 34 -- Sn 1              0.33        2.11315
         O 12 -- Sn 2              0.33        2.11315
         O 48 -- Zr 7              0.42        2.11321
         O 54 -- Zr 6              0.42        2.11321
         O 41 -- Sn 1              0.33        2.11350
         O 26 -- Sn 2              0.33        2.11350
         O 54 -- Zr 1              0.41        2.11440
         O 48 -- Zr 1              0.41        2.11440
         O 51 -- Zr 2              0.42        2.11444
         O 46 -- Zr 4              0.42        2.11444
         O 10 -- Zr 5              0.41        2.11455
         O 33 -- Zr 3              0.41        2.11455
         O 26 -- Sn 9              0.33        2.11455
         O 41 -- Sn 9              0.33        2.11455
         O 33 -- Zr 7              0.42        2.11508
         O 10 -- Zr 6              0.42        2.11508
         O 30 -- Sn 5              0.33        2.11513
         O 19 -- Sn 4              0.33        2.11513
         O 22 -- Sn 6              0.33        2.11544
         O 13 -- Sn 6              0.33        2.11544
         O 46 -- Zr 3              0.41        2.11695
         O 51 -- Zr 5              0.41        2.11695
         O 45 -- Zr 1              0.45        2.11731
         O 52 -- Zr 1              0.45        2.11731
         O 44 -- Zr 3              0.45        2.11734
         O 31 -- Zr 5              0.45        2.11734
         O 49 -- Zr 4              0.44        2.11791
         O 55 -- Zr 2              0.44        2.11791
         O 15 -- Zr 7              0.45        2.11951
         O 24 -- Zr 6              0.45        2.11951
         O 36 -- Zr 3              0.44        2.12088
         O 16 -- Zr 5              0.44        2.12088
         O 28 -- Zr 4              0.43        2.12140
         O 42 -- Zr 2              0.43        2.12140
         O 53 -- Zr 3              0.45        2.12145
         O 47 -- Zr 5              0.45        2.12145
         O 29 -- Zr 4              0.44        2.12169
         O 43 -- Zr 2              0.44        2.12169
         O 17 -- Zr 6              0.44        2.12170
         O 32 -- Zr 7              0.44        2.12170
         O 40 -- Zr 3              0.44        2.12197
         O 23 -- Zr 5              0.44        2.12197
         O 35 -- Zr 2              0.45        2.12210
         O 14 -- Zr 4              0.45        2.12210
         O 56 -- Zr 1              0.44        2.12376
         O 50 -- Zr 1              0.44        2.12376
         O 38 -- Zr 2              0.45        2.12400
         O 20 -- Zr 4              0.45        2.12400
         O 21 -- Zr 7              0.45        2.12512
         O 39 -- Zr 6              0.45        2.12512
         O 11 -- Zr 7              0.44        2.12551
         O 25 -- Zr 6              0.44        2.12551
         O 4  -- La 4              0.18        2.35611
         O 7  -- La 7              0.18        2.35611
         O 8  -- La 13             0.18        2.35747
         O 2  -- La 13             0.18        2.35747
         O 6  -- La 1              0.19        2.35752
         O 1  -- La 1              0.19        2.35752
         O 8  -- La 4              0.19        2.35761
         O 2  -- La 7              0.19        2.35761
         O 6  -- La 14             0.18        2.35821
         O 1  -- La 15             0.18        2.35821
         O 3  -- La 14             0.19        2.35823
         O 5  -- La 15             0.19        2.35823
         O 7  -- La 3              0.18        2.35912
         O 4  -- La 6              0.18        2.35912
         O 3  -- La 3              0.18        2.35922
         O 5  -- La 6              0.18        2.35922
         O 1  -- La 10             0.16        2.36037
         O 6  -- La 12             0.16        2.36037
         O 5  -- La 8              0.17        2.36040
         O 3  -- La 8              0.17        2.36040
         O 3  -- La 5              0.16        2.36048
         O 5  -- La 2              0.16        2.36048
         O 4  -- La 16             0.18        2.36083
         O 7  -- La 16             0.18        2.36083
         O 8  -- La 10             0.17        2.36163
         O 2  -- La 12             0.17        2.36163
         O 8  -- La 5              0.16        2.36165
         O 2  -- La 2              0.16        2.36165
         O 7  -- La 11             0.15        2.36250
         O 4  -- La 9              0.15        2.36250
         O 1  -- La 11             0.16        2.36255
         O 6  -- La 9              0.16        2.36255
         O 23 -- La 11             0.17        2.66366
         O 40 -- La 9              0.17        2.66366
         O 13 -- La 11             0.23        2.66412
         O 22 -- La 9              0.23        2.66412
         O 16 -- La 5              0.18        2.66547
         O 36 -- La 2              0.18        2.66547
         O 50 -- La 5              0.18        2.66559
         O 56 -- La 2              0.18        2.66559
         O 47 -- La 11             0.18        2.66577
         O 53 -- La 9              0.18        2.66577
         O 49 -- La 12             0.17        2.66768
         O 55 -- La 10             0.17        2.66768
         O 31 -- La 5              0.17        2.66777
         O 44 -- La 2              0.17        2.66777
         O 37 -- La 2              0.23        2.66831
         O 18 -- La 5              0.23        2.66831
         O 48 -- La 6              0.13        2.66833
         O 54 -- La 3              0.13        2.66833
         O 12 -- La 9              0.23        2.66872
         O 34 -- La 11             0.23        2.66872
         O 32 -- La 12             0.17        2.66895
         O 17 -- La 10             0.17        2.66895
         O 10 -- La 13             0.12        2.66922
         O 33 -- La 13             0.12        2.66922
         O 19 -- La 9              0.24        2.66934
         O 30 -- La 11             0.24        2.66934
         O 24 -- La 10             0.18        2.66971
         O 15 -- La 12             0.18        2.66971
         O 42 -- La 16             0.17        2.66978
         O 28 -- La 16             0.17        2.66978
         O 38 -- La 10             0.17        2.66982
         O 20 -- La 12             0.17        2.66982
         O 45 -- La 5              0.18        2.66985
         O 52 -- La 2              0.18        2.66985
         O 43 -- La 3              0.18        2.67014
         O 29 -- La 6              0.18        2.67014
         O 27 -- La 9              0.24        2.67162
         O 9  -- La 11             0.24        2.67162
         O 51 -- La 1              0.13        2.67277
         O 46 -- La 1              0.13        2.67277
         O 25 -- La 8              0.17        2.67343
         O 11 -- La 8              0.17        2.67343
         O 26 -- La 5              0.24        2.67352
         O 41 -- La 2              0.24        2.67352
         O 14 -- La 16             0.19        2.67523
         O 35 -- La 16             0.19        2.67523
         O 46 -- La 15             0.13        2.67525
         O 51 -- La 14             0.13        2.67525
         O 14 -- La 6              0.18        2.67540
         O 35 -- La 3              0.18        2.67540
         O 39 -- La 8              0.18        2.67553
         O 21 -- La 8              0.18        2.67553
         O 42 -- La 4              0.18        2.67574
         O 28 -- La 7              0.18        2.67574
         O 39 -- La 3              0.18        2.67636
         O 21 -- La 6              0.18        2.67636
         O 10 -- La 7              0.13        2.67710
         O 33 -- La 4              0.13        2.67710
         O 25 -- La 15             0.19        2.67738
         O 11 -- La 14             0.19        2.67738
         O 48 -- La 4              0.13        2.67837
         O 54 -- La 7              0.13        2.67837
         O 49 -- La 1              0.18        2.67901
         O 55 -- La 1              0.18        2.67901
         O 24 -- La 13             0.17        2.67922
         O 15 -- La 13             0.17        2.67922
         O 26 -- La 10             0.24        2.67936
         O 41 -- La 12             0.24        2.67936
         O 17 -- La 15             0.18        2.67954
         O 32 -- La 14             0.18        2.67954
         O 37 -- La 8              0.24        2.67963
         O 18 -- La 8              0.24        2.67963
         O 29 -- La 15             0.18        2.67967
         O 43 -- La 14             0.18        2.67967
         O 20 -- La 7              0.19        2.68009
         O 38 -- La 4              0.19        2.68009
         O 52 -- La 6              0.19        2.68041
         O 45 -- La 3              0.19        2.68041
         O 27 -- La 12             0.24        2.68072
         O 9  -- La 10             0.24        2.68072
         O 31 -- La 13             0.18        2.68198
         O 44 -- La 13             0.18        2.68198
         O 12 -- La 6              0.25        2.68211
         O 34 -- La 3              0.25        2.68211
         O 19 -- La 16             0.24        2.68293
         O 30 -- La 16             0.24        2.68293
         O 36 -- La 15             0.19        2.68361
         O 16 -- La 14             0.19        2.68361
         O 13 -- La 15             0.24        2.68432
         O 22 -- La 14             0.24        2.68432
         O 50 -- La 4              0.19        2.68479
         O 56 -- La 7              0.19        2.68479
         O 47 -- La 1              0.19        2.68577
         O 53 -- La 1              0.19        2.68577
         O 40 -- La 4              0.19        2.68586
         O 23 -- La 7              0.19        2.68586
         O 31 -- O 45             -0.06        2.79173
         O 44 -- O 52             -0.06        2.79173
         O 12 -- O 53             -0.06        2.79525
         O 34 -- O 47             -0.06        2.79525
         O 37 -- O 56             -0.06        2.79728
         O 18 -- O 50             -0.06        2.79728
         O 12 -- O 29             -0.06        2.79759
         O 34 -- O 43             -0.06        2.79759
         O 18 -- O 26             -0.05        2.79773
         O 37 -- O 41             -0.05        2.79773
         O 36 -- O 41             -0.06        2.79845
         O 16 -- O 26             -0.06        2.79845
         O 12 -- O 22             -0.05        2.79846
         O 13 -- O 34             -0.05        2.79846
         O 26 -- O 55             -0.06        2.79885
         O 41 -- O 49             -0.06        2.79885
         O 9  -- O 23             -0.06        2.79915
         O 27 -- O 40             -0.06        2.79915
         O 15 -- O 27             -0.06        2.79975
         O 9  -- O 24             -0.06        2.79975
         O 19 -- O 27             -0.05        2.80147
         O 9  -- O 30             -0.05        2.80147
         O 35 -- O 45             -0.06        2.80203
         O 14 -- O 52             -0.06        2.80203
         O 18 -- O 21             -0.06        2.80209
         O 37 -- O 39             -0.06        2.80209
         O 19 -- O 22             -0.05        2.80263
         O 13 -- O 30             -0.05        2.80263
         O 15 -- O 31             -0.06        2.80276
         O 24 -- O 44             -0.06        2.80276
         O 53 -- O 55             -0.06        2.80411
         O 47 -- O 49             -0.06        2.80411
         O 28 -- O 56             -0.06        2.80448
         O 42 -- O 50             -0.06        2.80448
         O 20 -- O 27             -0.06        2.80509
         O 9  -- O 38             -0.06        2.80509
         O 17 -- O 26             -0.06        2.80519
         O 32 -- O 41             -0.06        2.80519
         O 20 -- O 23             -0.06        2.80579
         O 38 -- O 40             -0.06        2.80579
         O 12 -- O 21             -0.06        2.80627
         O 34 -- O 39             -0.06        2.80627
         O 11 -- O 37             -0.06        2.80665
         O 18 -- O 25             -0.06        2.80665
         O 19 -- O 28             -0.05        2.80722
         O 30 -- O 42             -0.06        2.80722
         O 17 -- O 36             -0.06        2.80739
         O 16 -- O 32             -0.06        2.80739
         O 13 -- O 29             -0.05        2.80901
         O 22 -- O 43             -0.05        2.80901
         O 19 -- O 35             -0.05        2.80930
         O 14 -- O 30             -0.05        2.80930
         O 11 -- O 22             -0.05        2.80937
         O 13 -- O 25             -0.05        2.80937
         O 33 -- O 44             -0.03        2.81689
         O 10 -- O 31             -0.03        2.81689
         O 45 -- O 54             -0.03        2.81792
         O 48 -- O 52             -0.03        2.81792
         O 33 -- O 48             -0.03        2.82017
         O 10 -- O 54             -0.03        2.82017
         O 52 -- O 56             -0.03        2.82024
         O 45 -- O 50             -0.03        2.82024
         O 36 -- O 44             -0.03        2.82070
         O 16 -- O 31             -0.03        2.82070
         O 20 -- O 49             -0.03        2.82267
         O 38 -- O 55             -0.03        2.82267
         O 23 -- O 47             -0.03        2.82287
         O 40 -- O 53             -0.03        2.82287
         O 15 -- O 33             -0.03        2.82478
         O 10 -- O 24             -0.03        2.82478
         O 46 -- O 49             -0.03        2.82509
         O 51 -- O 55             -0.03        2.82509
         O 35 -- O 42             -0.03        2.82525
         O 14 -- O 28             -0.03        2.82525
         O 17 -- O 24             -0.03        2.82558
         O 15 -- O 32             -0.03        2.82558
         O 29 -- O 46             -0.03        2.82560
         O 43 -- O 51             -0.03        2.82560
         O 46 -- O 53             -0.03        2.82587
         O 47 -- O 51             -0.03        2.82587
         O 39 -- O 54             -0.03        2.82680
         O 21 -- O 48             -0.03        2.82680
         O 33 -- O 40             -0.03        2.82722
         O 10 -- O 23             -0.03        2.82722
         O 54 -- O 56             -0.03        2.82757
         O 48 -- O 50             -0.03        2.82757
         O 16 -- O 51             -0.03        2.82778
         O 36 -- O 46             -0.03        2.82778
         O 20 -- O 28             -0.03        2.83054
         O 38 -- O 42             -0.03        2.83054
         O 14 -- O 29             -0.03        2.83090
         O 35 -- O 43             -0.03        2.83090
         O 25 -- O 39             -0.03        2.83433
         O 11 -- O 21             -0.03        2.83433
         O 11 -- O 32             -0.03        2.83496
         O 17 -- O 25             -0.03        2.83496
============================================================
 

Writing analysis data to 18.castep_bin

Writing model to 18.check
 
 A BibTeX formatted list of references used in this run has been written to 
 18.bib
 
Initialisation time =     25.19 s
Calculation time    =   2693.16 s
Finalisation time   =      8.76 s
Total time          =   2727.11 s
Peak Memory Use     = 3604120 kB
  
Overall parallel efficiency rating: Good (74%)                                  
  
Data was distributed by:-
G-vector (64-way); efficiency rating: Good (75%)                                
k-point (14-way); efficiency rating: Excellent (96%)                            
