 +-------------------------------------------------+
 |                                                 |
 |      CCC   AA    SSS  TTTTT  EEEEE  PPPP        |
 |     C     A  A  S       T    E      P   P       |
 |     C     AAAA   SS     T    EEE    PPPP        |
 |     C     A  A     S    T    E      P           |
 |      CCC  A  A  SSS     T    EEEEE  P           |
 |                                                 |
 +-------------------------------------------------+
 |                                                 |
 | Welcome to Academic Release CASTEP version 16.1 |          
 | Ab Initio Total Energy Program                  |
 |                                                 |
 | Authors:                                        |
 | M. Segall, M. Probert, C. Pickard, P. Hasnip,   |
 | S. Clark, K. Refson, J. R. Yates, M. Payne      |
 |                                                 |
 | Contributors:                                   |
 | P. Lindan, P. Haynes, J. White, V. Milman,      |
 | N. Govind, M. Gibson, P. Tulip, V. Cocula,      |
 | B. Montanari, D. Quigley, M. Glover,            |
 | L. Bernasconi, A. Perlov, M. Plummer,           |
 | E. McNellis, J. Meyer, J. Gale, D. Jochym       |
 | J. Aarons, B. Walker, R. Gillen, D. Jones       |
 | T. Green, I. J. Bush, C. J. Armstrong,          |
 | E. J. Higgins, E. L. Brown, M. S. McFly         |
 |                                                 |
 | Copyright (c) 2000 - 2015                       |
 |                                                 |
 |     Distributed under the terms of an           |
 |     Agreement between the United Kingdom        |
 |     Car-Parrinello (UKCP) Consortium,           |
 |     Daresbury Laboratory and Accelrys, Inc.     |
 |                                                 |
 | Please cite                                     |
 |                                                 |
 |     "First principles methods using CASTEP"     |
 |                                                 |
 |         Zeitschrift fuer Kristallographie       |
 |           220(5-6) pp. 567-570 (2005)           |
 |                                                 |
 | S. J. Clark, M. D. Segall, C. J. Pickard,       |
 | P. J. Hasnip, M. J. Probert, K. Refson,         |
 | M. C. Payne                                     |
 |                                                 |
 |       in all publications arising from          |
 |              your use of CASTEP                 |
 |                                                 |
 +-------------------------------------------------+
 
 
 Compiled for linux_x86_64_cray-XT on Tue, 22 Mar 2022 15:42:52 +0000
 from code version b833c1ffcd7d+  Fri, 13 Jun 2014 17:24:31 +0100
 Compiler: Cray Fortran 11.0.4; Optimisation: intermediate
 MATHLIBS: LibSci (LAPACK version 3.6.1)
 FFT Lib : default
 Fundamental constants values: CODATA 2010
 
 Run started: Tue, 29 Mar 2022 10:56:11 -0100
 +-------------------------------------------------+
 |                                                 |
 |           N   N    M   M    RRRR                |
 |           NN  N    MM MM    R   R               |
 |           N N N    M M M    RRRR                |
 |           N  NN    M   M    R  R                |
 |           N   N    M   M    R   R               |
 |                                                 |
 +-------------------------------------------------+
 |                                                 |
 | Welcome to Materials Studio CASTEP-NMR          |
 |                                                 |
 | Authors:                                        |
 | J.R. Yates, C.J. Pickard, F. Mauri              |
 |                                                 |
 | Contributors:                                   |
 | T.F.G. Green, S.A. Joyce                        |
 |                                                 |
 | Copyright (c) 2004 - 2015                       |
 |                                                 |
 | Please cite the appropriate publications in all |
 | work arising from your use of CASTEP NMR.       |
 |                                                 |
 | For NMR Shielding Tensors cite:                 |
 |    "All-electron magnetic response with         |
 |    pseudopotentials: NMR chemical shifts",      |
 |    C. J. Pickard, F. Mauri;                     |
 |    Physical Review B63 245101 (2001), and       |
 |                                                 |
 |    "Calculation of NMR Chemical Shifts          |
 |    for extended systems using                   |
 |    Ultrasoft Pseudopotentials",                 |
 |    J. R. Yates, C. J. Pickard and F. Mauri      |
 |    Physical Review B76 024401 (2007)            |
 |                                                 |
 | For Electric Field Gradients cite:              |
 |   "Accurate First Principles Prediction of 17O  |
 |    NMR Parameters in SiO2: Assignment of the    |
 |    Zeolite Ferrierite Spectrum"                 |
 |    M. Profeta, F. Mauri and C. J. Pickard       |
 |    J. Amer. Chem. Soc. 125 541 (2003)           |
 |                                                 |
 | For Spin-Spin (J) Couplings cite:               |
 |   "A first principles theory of NMR J-coupling  |
 |   in solid-state systems"                       |
 |   S.A. Joyce, J.R. Yates, C.J. Pickard, F. Mauri|
 |   J. Chem. Phys. 127 204107 (2007)              |
 |                                                 |
 |   "Relativistic NMR J-coupling with ultrasoft   |
 |   pseudopotentials and the zeroth-order regular |
 |   approximation"                                |
 |   T.F.G. Green and J.R. Yates                   |
 |   J. Chem. Phys. 140 234106 (2014)              |
 |                                                 |
 +-------------------------------------------------+
 
 
 Atomic calculation performed for O: 1s2 2s2 2p4
 
 Converged in 44 iterations to an ae energy of -2040.855 eV
 
 
 Atomic calculation performed for O: 1s2 2s2 2p4
 
 Exceeded max iterations: converged to 0.000000062 eV
 
   ============================================================                
   | Pseudopotential Report - Date of generation 29-03-2022   |                
   ------------------------------------------------------------                
   | Element: O Ionic charge:  6.00 Level of theory: PBE      |                
   | Atomic Solver: ZORA (scalar)                             |                
   |                                                          |                
   |               Reference Electronic Structure             |                
   |         Orbital         Occupation         Energy        |                
   |            2s              2.000           -0.881        |                
   |            2p              4.000           -0.332        |                
   |                                                          |                
   |                 Pseudopotential Definition               |                
   |        Beta     l      e      Rc     scheme   norm       |                
   |          1      0   -0.881   1.100     qc      0         |                
   |          2      0    0.250   1.100     qc      0         |                
   |          3      1   -0.332   1.100     qc      0         |                
   |          4      1    0.250   1.100     qc      0         |                
   |         loc     2    0.000   1.100     pn      0         |                
   |                                                          |                
   | Augmentation charge Rinner = 0.769                       |                
   | Partial core correction Rc = 0.769                       |                
   ------------------------------------------------------------                
   | "2|1.1|15|18|20|20:21(qc=7)"                             |                
   ------------------------------------------------------------                
   |      Author: Chris J. Pickard, Cambridge University      |                
   ============================================================                
 
 Atomic calculation performed for Zr: 1s2 2s2 2p6 3s2 3p6 3d10 4s2 4p6 4d2 5s2
 
 Converged in 52 iterations to an ae energy of -97719.888 eV
 
 
 Atomic calculation performed for Zr: 1s2 2s2 2p6 3s2 3p6 3d10 4s2 4p6 4d2 5s2
 
 Exceeded max iterations: converged to 0.000000936 eV
 
 Warning: ion_atom_descreen_psp: negative charge density encountered
   ============================================================                
   | Pseudopotential Report - Date of generation 29-03-2022   |                
   ------------------------------------------------------------                
   | Element: Zr Ionic charge: 12.00 Level of theory: PBE     |                
   | Atomic Solver: ZORA (scalar)                             |                
   |                                                          |                
   |               Reference Electronic Structure             |                
   |         Orbital         Occupation         Energy        |                
   |            4s              2.000           -2.003        |                
   |            4p              6.000           -1.193        |                
   |            5s              2.000           -0.163        |                
   |            4d              2.000           -0.132        |                
   |                                                          |                
   |                 Pseudopotential Definition               |                
   |        Beta     l      e      Rc     scheme   norm       |                
   |          1      0   -2.003   2.105     qc      0         |                
   |          2      0   -0.163   2.105     qc      0         |                
   |          3      0    0.250   2.105     qc      0         |                
   |          4      1   -1.193   2.105     qc      0         |                
   |          5      1    0.250   2.105     qc      0         |                
   |          6      2   -0.132   2.105     qc      0         |                
   |          7      2    0.250   2.105     qc      0         |                
   |         loc     3    0.000   2.105     pn      0         |                
   |                                                          |                
   | Augmentation charge Rinner = 1.471                       |                
   | Partial core correction Rc = 1.471                       |                
   ------------------------------------------------------------                
   | "3|2.1|7|8|9|40U:50:41:42"                               |                
   ------------------------------------------------------------                
   |      Author: Chris J. Pickard, Cambridge University      |                
   ============================================================                
 
 Atomic calculation performed for Sn:
 1s2 2s2 2p6 3s2 3p6 3d10 4s2 4p6 4d10 5s2 5p2
 
 Converged in 58 iterations to an ae energy of -167539.320 eV
 
 
 Atomic calculation performed for Sn:
 1s2 2s2 2p6 3s2 3p6 3d10 4s2 4p6 4d10 5s2 5p2
 
 Exceeded max iterations: converged to -0.000000491 eV
 
   ============================================================                
   | Pseudopotential Report - Date of generation 29-03-2022   |                
   ------------------------------------------------------------                
   | Element: Sn Ionic charge: 14.00 Level of theory: PBE     |                
   | Atomic Solver: ZORA (scalar)                             |                
   |                                                          |                
   |               Reference Electronic Structure             |                
   |         Orbital         Occupation         Energy        |                
   |            4d             10.000           -0.950        |                
   |            5s              2.000           -0.388        |                
   |            5p              2.000           -0.136        |                
   |                                                          |                
   |                 Pseudopotential Definition               |                
   |        Beta     l      e      Rc     scheme   norm       |                
   |          1      0   -0.388   2.199     qc      0         |                
   |          2      0    0.250   2.199     qc      0         |                
   |          3      1   -0.136   2.199     qc      0         |                
   |          4      1    0.250   2.199     qc      0         |                
   |          5      2   -0.950   2.199     qc      0         |                
   |          6      2    0.250   2.199     qc      0         |                
   |         loc     3    0.000   2.199     pn      0         |                
   |                                                          |                
   | Augmentation charge Rinner = 1.537                       |                
   | Partial core correction Rc = 1.537                       |                
   ------------------------------------------------------------                
   | "3|2.2|7|8|9|50:51:42"                                   |                
   ------------------------------------------------------------                
   |      Author: Chris J. Pickard, Cambridge University      |                
   ============================================================                
 
 Atomic calculation performed for La:
 1s2 2s2 2p6 3s2 3p6 3d10 4s2 4p6 4d10 5s2 5p6 5d1 6s2
 
 Converged in 55 iterations to an ae energy of -230121.495 eV
 
 
 Atomic calculation performed for La:
 1s2 2s2 2p6 3s2 3p6 3d10 4s2 4p6 4d10 5s2 5p6 5d1 6s2
 
 Exceeded max iterations: converged to 0.000001134 eV
 
 Warning: ion_atom_descreen_psp: negative charge density encountered
   ============================================================                
   | Pseudopotential Report - Date of generation 29-03-2022   |                
   ------------------------------------------------------------                
   | Element: La Ionic charge: 11.00 Level of theory: PBE     |                
   | Atomic Solver: ZORA (scalar)                             |                
   |                                                          |                
   |               Reference Electronic Structure             |                
   |         Orbital         Occupation         Energy        |                
   |            5s              2.000           -1.430        |                
   |            5p              6.000           -0.823        |                
   |            6s              2.000           -0.135        |                
   |            5d              1.000           -0.114        |                
   |                                                          |                
   |                 Pseudopotential Definition               |                
   |        Beta     l      e      Rc     scheme   norm       |                
   |          1      0   -1.430   2.298     qc      0         |                
   |          2      0   -0.135   2.298     qc      0         |                
   |          3      0    0.250   2.298     qc      0         |                
   |          4      1   -0.823   2.298     qc      0         |                
   |          5      1    0.250   2.298     qc      0         |                
   |          6      2   -0.114   2.298     qc      0         |                
   |          7      2    0.250   2.298     qc      0         |                
   |         loc     2    0.000   2.298     pn      0         |                
   |                                                          |                
   | Augmentation charge Rinner = 1.606                       |                
   | Partial core correction Rc = 1.606                       |                
   ------------------------------------------------------------                
   | "2|2.3|5|6|7|50U:60:51:52(qc=4.5)"                       |                
   ------------------------------------------------------------                
   |      Author: Chris J. Pickard, Cambridge University      |                
   ============================================================                
 
 Pseudo atomic calculation performed for O 2s2 2p4
 
 Converged in 39 iterations to a total energy of -432.6554 eV
 
 
 Pseudo atomic calculation performed for Zr 4s2 4p6 4d2 5s2
 
 Converged in 38 iterations to a total energy of -1285.4931 eV
 
 
 Pseudo atomic calculation performed for Sn 4d10 5s2 5p2
 
 Converged in 48 iterations to a total energy of -2044.5413 eV
 
 
 Pseudo atomic calculation performed for La 5s2 5p6 5d1 6s2
 
 Converged in 34 iterations to a total energy of -968.0373 eV
 
 Calculation parallelised over 896 processes.
 Data is distributed by G-vector(64-way) and k-point(14-way)

 ************************************ Title ************************************
 nmr testing

 ***************************** General Parameters ******************************
  
 output verbosity                               : normal  (1)
 write checkpoint data to                       : 26.check
 type of calculation                            : Magnetic Resonance
 stress calculation                             : on
 density difference calculation                 : off
 electron localisation func (ELF) calculation   : off
 Hirshfeld analysis                             : off
 unlimited duration calculation
 timing information                             : on
 memory usage estimate                          : on
 write final potential to formatted file        : off
 write final density to formatted file          : off
 write BibTeX reference list                    : on
 write OTFG pseudopotential files               : on
 checkpoint writing                             : both castep_bin and check files
  
 output         length unit                     : A
 output           mass unit                     : amu
 output           time unit                     : ps
 output         charge unit                     : e
 output           spin unit                     : hbar/2
 output         energy unit                     : eV
 output          force unit                     : eV/A
 output       velocity unit                     : A/ps
 output       pressure unit                     : GPa
 output     inv_length unit                     : 1/A
 output      frequency unit                     : cm-1
 output force constant unit                     : eV/A**2
 output         volume unit                     : A**3
 output   IR intensity unit                     : (D/A)**2/amu
 output         dipole unit                     : D
 output         efield unit                     : eV/A/e
 output        entropy unit                     : J/mol/K
  
 wavefunctions paging                           : none
 random number generator seed                   : randomised (105611464)
 data distribution                              : optimal for this architecture
 optimization strategy                          : maximize speed(+++)

 *********************** Exchange-Correlation Parameters ***********************
  
 using functional                               : Perdew Burke Ernzerhof
 relativistic treatment                         : ZORA
 DFT+D: Semi-empirical dispersion correction    : off

 ************************* Pseudopotential Parameters **************************
  
 pseudopotential representation                 : reciprocal space
 <beta|phi> representation                      : reciprocal space
 spin-orbit coupling                            : off

 **************************** Basis Set Parameters *****************************
  
 plane wave basis set cut-off                   :   816.3416   eV
 size of standard grid                          :     1.7500
 size of   fine   gmax                          :    25.6161   1/A
 finite basis set correction                    : automatic
 number of sample energies                      :          3
           sample  spacing                      :     5.0000   eV

 **************************** Electronic Parameters ****************************
  
 number of  electrons                           :  722.0    
 net charge of system                           :  0.000    
 treating system as non-spin-polarized
 number of bands                                :        433

 ********************* Electronic Minimization Parameters **********************
  
 Method: Treating system as metallic with density mixing treatment of electrons,
         and number of  SD  steps               :          1
         and number of  CG  steps               :          4
  
 total energy / atom convergence tol.           : 0.1000E-08   eV
 eigen-energy convergence tolerance             : 0.2438E-09   eV
 max force / atom convergence tol.              : ignored
 convergence tolerance window                   :          3   cycles
 max. number of SCF cycles                      :        250
 number of fixed-spin iterations                :         10
 smearing scheme                                : Gaussian
 smearing width                                 : 0.2000       eV
 Fermi energy convergence tolerance             : 0.2721E-13   eV
 periodic dipole correction                     : NONE

 ************************** Density Mixing Parameters **************************
  
 density-mixing scheme                          : Broyden
 max. length of mixing history                  :         20
 charge density mixing amplitude                : 0.8000    
 cut-off energy for mixing                      :  816.3       eV

 *********************** Population Analysis Parameters ************************
  
 Population analysis with cutoff                :  3.000       A

 ************************ Magnetic Resonance Parameters ************************
  
 Magnetic Resonance Property                    : Chemical Shielding + EFG
 Position Operator Method                       : crystal
 max. number of MagRes CG steps                 :        250
 convergence tolerance window                   :          2   cycles
 energy convergence tolerance                   : 0.1000E-11   eV
 band convergence tolerance                     : 0.1000E-08   eV

 *******************************************************************************
  
 
                           -------------------------------
                                      Unit Cell
                           -------------------------------
        Real Lattice(A)                      Reciprocal Lattice(1/A)
  10.8994462  -0.0011315  -0.0011315        0.5764683   0.0000608   0.0000608
  -0.0011491  10.8968414  -0.0039462        0.0000599   0.5766062   0.0002088
  -0.0011491  -0.0039462  10.8968414        0.0000599   0.0002088   0.5766062
 
                       Lattice parameters(A)       Cell Angles
                    a =   10.899446          alpha =   90.041497
                    b =   10.896842          beta  =   90.011988
                    c =   10.896842          gamma =   90.011988
 
                       Current cell volume = 1294.212603       A**3
 
                           -------------------------------
                                     Cell Contents
                           -------------------------------
                         Total number of ions in cell =   88
                      Total number of species in cell =    4
                        Max number of any one species =   56
 
            xxxxxxxxxxxxxxxxxxxxxxxxxxxxxxxxxxxxxxxxxxxxxxxxxxxxxxxxxxxx
            x  Element    Atom        Fractional coordinates of atoms  x
            x            Number           u          v          w      x
            x----------------------------------------------------------x
            x  O            1         0.125007   0.124862   0.124862   x 
            x  O            2         0.624838   0.124995   0.624952   x 
            x  O            3         0.125449   0.625211   0.625211   x 
            x  O            4         0.624838   0.624952   0.124995   x 
            x  O            5         0.874551   0.374789   0.374789   x 
            x  O            6         0.874993   0.875138   0.875138   x 
            x  O            7         0.375162   0.375048   0.875005   x 
            x  O            8         0.375162   0.875005   0.375048   x 
            x  O            9         0.421004   0.124494   0.124494   x 
            x  O           10         0.329805   0.125873   0.624638   x 
            x  O           11         0.830157   0.625074   0.625074   x 
            x  O           12         0.919542   0.625112   0.124922   x 
            x  O           13         0.125060   0.419660   0.124791   x 
            x  O           14         0.624868   0.329902   0.124692   x 
            x  O           15         0.626397   0.829508   0.624495   x 
            x  O           16         0.123963   0.920267   0.623832   x 
            x  O           17         0.125060   0.124791   0.419660   x 
            x  O           18         0.124733   0.625158   0.330343   x 
            x  O           19         0.626397   0.624495   0.829508   x 
            x  O           20         0.624548   0.124650   0.920812   x 
            x  O           21         0.875267   0.669657   0.374842   x 
            x  O           22         0.874940   0.580340   0.875209   x 
            x  O           23         0.375452   0.079188   0.875350   x 
            x  O           24         0.373603   0.170492   0.375505   x 
            x  O           25         0.169843   0.374926   0.374926   x 
            x  O           26         0.080458   0.875078   0.374888   x 
            x  O           27         0.578996   0.875506   0.875506   x 
            x  O           28         0.670195   0.375362   0.874127   x 
            x  O           29         0.876037   0.376168   0.079733   x 
            x  O           30         0.373603   0.375505   0.170492   x 
            x  O           31         0.375132   0.875308   0.670098   x 
            x  O           32         0.874940   0.875209   0.580340   x 
            x  O           33         0.670195   0.874127   0.375362   x 
            x  O           34         0.080458   0.374888   0.875078   x 
            x  O           35         0.375132   0.670098   0.875308   x 
            x  O           36         0.876037   0.079733   0.376168   x 
            x  O           37         0.875267   0.374842   0.669657   x 
            x  O           38         0.375452   0.875350   0.079188   x 
            x  O           39         0.124733   0.330343   0.625158   x 
            x  O           40         0.624548   0.920812   0.124650   x 
            x  O           41         0.919542   0.124922   0.625112   x 
            x  O           42         0.329805   0.624638   0.125873   x 
            x  O           43         0.123963   0.623832   0.920267   x 
            x  O           44         0.624868   0.124692   0.329902   x 
            x  O           45         0.420264   0.624812   0.624812   x 
            x  O           46         0.829793   0.125083   0.125083   x 
            x  O           47         0.124692   0.126426   0.829718   x 
            x  O           48         0.625810   0.625956   0.420442   x 
            x  O           49         0.875308   0.170282   0.873574   x 
            x  O           50         0.374190   0.579558   0.374044   x 
            x  O           51         0.170207   0.874917   0.874917   x 
            x  O           52         0.579736   0.375188   0.375188   x 
            x  O           53         0.875308   0.873574   0.170282   x 
            x  O           54         0.374190   0.374044   0.579558   x 
            x  O           55         0.124692   0.829718   0.126426   x 
            x  O           56         0.625810   0.420442   0.625956   x 
            x  Zr           1         0.500000   0.500000   0.500000   x 
            x  Zr           2         0.249526   0.749339   0.000507   x 
            x  Zr           3         0.750474  -0.000507   0.250661   x 
            x  Zr           4         0.750474   0.250661  -0.000507   x 
            x  Zr           5         0.249526   0.000507   0.749339   x 
            x  Zr           6         0.499537   0.250408   0.250408   x 
            x  Zr           7         0.500463   0.749592   0.749592   x 
            x  Sn           1        -0.000000   0.250059   0.749941   x 
            x  Sn           2         0.000000   0.749941   0.250059   x 
            x  Sn           3         0.500000  -0.000000  -0.000000   x 
            x  Sn           4         0.249328   0.249540   0.500416   x 
            x  Sn           5         0.750672   0.499584   0.750460   x 
            x  Sn           6         0.750672   0.750460   0.499584   x 
            x  Sn           7         0.249328   0.500416   0.249540   x 
            x  Sn           8        -0.000000   0.500000  -0.000000   x 
            x  Sn           9        -0.000000  -0.000000   0.500000   x 
            x  La           1        -0.000000  -0.000000   0.000000   x 
            x  La           2         0.749590   0.249941   0.499878   x 
            x  La           3         0.250410   0.500122   0.750059   x 
            x  La           4         0.500000   0.750090   0.249910   x 
            x  La           5         0.250410   0.750059   0.500122   x 
            x  La           6         0.749590   0.499878   0.249941   x 
            x  La           7         0.500000   0.249910   0.750090   x 
            x  La           8        -0.000000   0.500000   0.500000   x 
            x  La           9         0.749610   0.750257   0.000031   x 
            x  La          10         0.250390  -0.000031   0.249743   x 
            x  La          11         0.250390   0.249743  -0.000031   x 
            x  La          12         0.749610   0.000031   0.750257   x 
            x  La          13         0.500000  -0.000000   0.500000   x 
            x  La          14         0.000264   0.750207   0.750207   x 
            x  La          15        -0.000264   0.249793   0.249793   x 
            x  La          16         0.500000   0.500000   0.000000   x 
            xxxxxxxxxxxxxxxxxxxxxxxxxxxxxxxxxxxxxxxxxxxxxxxxxxxxxxxxxxxx
 
 
                         No user defined ionic velocities
 
                           -------------------------------
                                   Details of Species
                           -------------------------------
 
                               Mass of species in AMU
                                    O   15.9994000
                                    Zr   91.2240000
                                    Sn  118.7100000
                                    La  138.9055000
 
                          Electric Quadrupole Moment (Barn)
                                    O   -0.0255800 Isotope 17
                                    Zr   -0.1760000 Isotope 91
                                    Sn    1.0000000 No Isotope Defined
                                    La    0.2000000 Isotope139
 
                          Files used for pseudopotentials:
                                    O 2|1.1|15|18|20|20:21(qc=7)
                                    Zr 3|2.1|7|8|9|40U:50:41:42
                                    Sn 3|2.2|7|8|9|50:51:42
                                    La 2|2.3|5|6|7|50U:60:51:52(qc=4.5)
 
                           -------------------------------
                              k-Points For BZ Sampling
                           -------------------------------
                       MP grid size for SCF calculation is  3  3  3
                            with an offset of   0.000  0.000  0.000
                       Number of kpoints used =   14
 
                           -------------------------------
                               Symmetry and Constraints
                           -------------------------------
 
                      Maximum deviation from symmetry =  0.00000         ANG
 
         There are no symmetry operations specified or generated for this cell
                      Number of ionic constraints     = 3
                      Point group of crystal =     1: C1, 1, 1
                      Space group of crystal =    12: C2/m, -C 2y
 
 
                         Centre of mass is constrained
             Set iprint > 1 for details of linear ionic constraints
 
                         Number of cell constraints= 0
                         Cell constraints are:  1 2 3 4 5 6
 
                         External pressure/stress (GPa)
                          0.00000   0.00000   0.00000
                                    0.00000   0.00000
                                              0.00000
  
+---------------- MEMORY AND SCRATCH DISK ESTIMATES PER PROCESS --------------+
|                                                     Memory          Disk    |
| Baseline code, static data and system overhead      843.0 MB         0.0 MB |
| BLAS internal memory storage                          0.0 MB         0.0 MB |
| Model and support data                              149.4 MB         0.0 MB |
| Electronic energy minimisation requirements          28.3 MB         0.0 MB |
| Force calculation requirements                        1.5 MB         0.0 MB |
| Stress calculation requirements                       1.8 MB         0.0 MB |
|                                               ----------------------------- |
| Approx. total storage required per process         1020.7 MB         0.0 MB |
|                                                                             |
| Requirements will fluctuate during execution and may exceed these estimates |
+-----------------------------------------------------------------------------+
Calculating finite basis set correction with  3 cut-off energies.
Calculating total energy with cut-off of  806.342eV.
------------------------------------------------------------------------ <-- SCF
SCF loop      Energy           Fermi           Energy gain       Timer   <-- SCF
                               energy          per atom          (sec)   <-- SCF
------------------------------------------------------------------------ <-- SCF
Initial  -5.71996166E+004  0.00000000E+000                        35.19  <-- SCF
      1  -6.52825815E+004  7.41867480E+000   9.18518733E+001      45.98  <-- SCF
      2  -6.78351465E+004  6.57762207E+000   2.90064207E+001      53.41  <-- SCF
      3  -6.79195932E+004  6.31912107E+000   9.59621964E-001      61.62  <-- SCF
      4  -6.79122052E+004  7.58745315E+000  -8.39554300E-002      71.29  <-- SCF
      5  -6.78117304E+004  6.87444813E+000  -1.14175838E+000      80.79  <-- SCF
      6  -6.78130191E+004  6.75540306E+000   1.46439194E-002      93.07  <-- SCF
      7  -6.78126755E+004  6.84062050E+000  -3.90449067E-003     103.20  <-- SCF
      8  -6.78127639E+004  6.84424481E+000   1.00439542E-003     116.94  <-- SCF
      9  -6.78127859E+004  6.84428360E+000   2.50152583E-004     128.35  <-- SCF
     10  -6.78127863E+004  6.84269368E+000   5.22677901E-006     138.75  <-- SCF
     11  -6.78127859E+004  6.84427687E+000  -4.82590693E-006     149.61  <-- SCF
     12  -6.78127862E+004  6.84435729E+000   3.14534929E-006     161.07  <-- SCF
     13  -6.78127862E+004  6.84409459E+000   2.15101002E-007     171.06  <-- SCF
     14  -6.78127862E+004  6.84391804E+000  -2.89392675E-007     181.16  <-- SCF
     15  -6.78127862E+004  6.84358129E+000  -8.58186195E-008     191.99  <-- SCF
     16  -6.78127862E+004  6.84342442E+000  -6.25436762E-009     201.48  <-- SCF
     17  -6.78127862E+004  6.84333747E+000  -9.74898393E-010     210.35  <-- SCF
     18  -6.78127862E+004  6.84329107E+000  -3.46199314E-010     217.40  <-- SCF
     19  -6.78127862E+004  6.84327002E+000   2.80109274E-010     223.91  <-- SCF
------------------------------------------------------------------------ <-- SCF
 
Final energy, E             =  -67812.78618432     eV
Final free energy (E-TS)    =  -67812.78618432     eV
(energies not corrected for finite basis set)
 
NB est. 0K energy (E-0.5TS)      =  -67812.78618432     eV
 
Calculating total energy with cut-off of  811.342eV.
------------------------------------------------------------------------ <-- SCF
SCF loop      Energy           Fermi           Energy gain       Timer   <-- SCF
                               energy          per atom          (sec)   <-- SCF
------------------------------------------------------------------------ <-- SCF
Initial  -6.78127862E+004  0.00000000E+000                       226.08  <-- SCF
      1  -6.78127886E+004  6.84325805E+000   2.78605161E-005     234.68  <-- SCF
      2  -6.78127886E+004  6.84325805E+000   1.98832587E-010     240.97  <-- SCF
      3  -6.78127886E+004  6.84325816E+000   1.60148822E-008     247.23  <-- SCF
      4  -6.78127886E+004  6.84326385E+000   5.07065283E-010     253.49  <-- SCF
      5  -6.78127886E+004  6.84326427E+000  -1.18399603E-010     259.71  <-- SCF
------------------------------------------------------------------------ <-- SCF
 
Final energy, E             =  -67812.78863750     eV
Final free energy (E-TS)    =  -67812.78863750     eV
(energies not corrected for finite basis set)
 
NB est. 0K energy (E-0.5TS)      =  -67812.78863750     eV
 
Calculating total energy with cut-off of  816.342eV.
------------------------------------------------------------------------ <-- SCF
SCF loop      Energy           Fermi           Energy gain       Timer   <-- SCF
                               energy          per atom          (sec)   <-- SCF
------------------------------------------------------------------------ <-- SCF
Initial  -6.78127886E+004  0.00000000E+000                       261.86  <-- SCF
      1  -6.78127917E+004  6.84327182E+000   3.43236836E-005     270.59  <-- SCF
      2  -6.78127917E+004  6.84327182E+000   2.12331829E-010     276.95  <-- SCF
      3  -6.78127917E+004  6.84326300E+000   2.15502745E-008     283.35  <-- SCF
      4  -6.78127917E+004  6.84326762E+000   6.92679862E-010     289.67  <-- SCF
      5  -6.78127917E+004  6.84326297E+000  -2.48892277E-011     296.01  <-- SCF
------------------------------------------------------------------------ <-- SCF
 
Final energy, E             =  -67812.79165995     eV
Final free energy (E-TS)    =  -67812.79165995     eV
(energies not corrected for finite basis set)
 
NB est. 0K energy (E-0.5TS)      =  -67812.79165995     eV
 
 For future reference: finite basis dEtot/dlog(Ecut) =      -0.440671eV
 Total energy corrected for finite basis set =  -67812.791646 eV
 
  =====================================================================
  +       Calculation of Nuclear Magnetic Resonance Parameters        +
  + ================================================================= +
 
  Starting Calculation of Electric Field Gradient Tensors         |<-- EFG
  +---------------- MEMORY AND SCRATCH DISK ESTIMATES PER PROCESS --------------+
  |                                                     Memory          Disk    |
  | Model and support data                              151.1 MB         0.0 MB |
  | NMR EFG calculation requirements                     27.4 MB         0.0 MB |
  |                                               ----------------------------- |
  | Approx. total storage required per process          178.5 MB         0.0 MB |
  |                                                                             |
  | Requirements will fluctuate during execution and may exceed these estimates |
  +-----------------------------------------------------------------------------+
  Total Time for EFG Tensors                      30.37 sec       |<-- EFG
 
  Starting Calculation of Chemical Shielding Tensors              |<-- NMR
  +---------------- MEMORY AND SCRATCH DISK ESTIMATES PER PROCESS --------------+
  |                                                     Memory          Disk    |
  | Model and support data                              151.1 MB         0.0 MB |
  | NMR chemical shift calculation requirements          90.7 MB         0.0 MB |
  |                                               ----------------------------- |
  | Approx. total storage required per process          241.8 MB         0.0 MB |
  |                                                                             |
  | Requirements will fluctuate during execution and may exceed these estimates |
  +-----------------------------------------------------------------------------+
  Starting k-point:   1 of   1                                    |<-- NMR
  Total Time for step 1 of 6:                    275.76 sec       |<-- NMR
  Total Time for step 2 of 6:                    277.45 sec       |<-- NMR
  Total Time for step 3 of 6:                    276.44 sec       |<-- NMR
  Total Time for step 4 of 6:                    274.86 sec       |<-- NMR
  Total Time for step 5 of 6:                    276.48 sec       |<-- NMR
  Total Time for step 6 of 6:                    274.40 sec       |<-- NMR
  Total Time for Chemical Shielding Tensors     2412.07 sec       |<-- NMR
 
  ========================================================================
  |           Chemical Shielding and Electric Field Gradient Tensors     |
  |----------------------------------------------------------------------|
  |     Nucleus                Shielding tensor             EFG Tensor   |
  |  Species       Ion    Iso(ppm)   Aniso(ppm)  Asym    Cq(MHz)    Eta  |
  |    O           1     -317.45      13.30      0.86   5.278E-02   0.51 |
  |    O           2     -317.23      -6.92      0.69  -4.291E-02   0.88 |
  |    O           3     -320.09      -5.64      0.20  -6.572E-02   0.42 |
  |    O           4     -317.23      -6.91      0.70  -4.291E-02   0.88 |
  |    O           5     -320.09      -5.64      0.20  -6.572E-02   0.42 |
  |    O           6     -317.45      13.30      0.86   5.278E-02   0.51 |
  |    O           7     -317.23      -6.91      0.70  -4.291E-02   0.88 |
  |    O           8     -317.23      -6.92      0.69  -4.291E-02   0.88 |
  |    O           9      -82.66      90.79      0.38  -3.150E+00   0.08 |
  |    O          10      -92.26      94.77      0.24  -3.172E+00   0.10 |
  |    O          11        1.03     -69.65      0.90   3.750E+00   0.99 |
  |    O          12      -12.74      56.97      0.73   3.852E+00   0.89 |
  |    O          13       -9.58      57.98      0.70   3.865E+00   0.89 |
  |    O          14     -160.90     152.44      0.78   1.038E+00   0.72 |
  |    O          15      -86.56      86.22      0.17  -3.171E+00   0.09 |
  |    O          16      -86.84      79.80      0.06  -3.286E+00   0.08 |
  |    O          17       -9.58      57.98      0.70   3.865E+00   0.89 |
  |    O          18       -8.47      60.78      0.79   3.821E+00   0.93 |
  |    O          19      -86.56      86.20      0.17  -3.171E+00   0.09 |
  |    O          20      -85.36      88.83      0.34  -3.153E+00   0.09 |
  |    O          21       -8.47      60.77      0.79   3.821E+00   0.93 |
  |    O          22       -9.57      57.99      0.70   3.865E+00   0.89 |
  |    O          23      -85.36      88.83      0.34  -3.153E+00   0.09 |
  |    O          24      -86.56      86.22      0.17  -3.171E+00   0.09 |
  |    O          25        1.03     -69.65      0.90   3.750E+00   0.99 |
  |    O          26      -12.74      56.97      0.73   3.852E+00   0.89 |
  |    O          27      -82.66      90.78      0.38  -3.150E+00   0.08 |
  |    O          28      -92.26      94.76      0.24  -3.172E+00   0.10 |
  |    O          29      -86.84      79.80      0.06  -3.286E+00   0.08 |
  |    O          30      -86.56      86.21      0.17  -3.171E+00   0.09 |
  |    O          31     -160.90     152.44      0.78   1.038E+00   0.72 |
  |    O          32       -9.58      57.98      0.70   3.865E+00   0.89 |
  |    O          33      -92.26      94.77      0.24  -3.172E+00   0.10 |
  |    O          34      -12.74      56.97      0.73   3.852E+00   0.89 |
  |    O          35     -160.90     152.44      0.78   1.038E+00   0.72 |
  |    O          36      -86.84      79.80      0.06  -3.286E+00   0.08 |
  |    O          37       -8.47      60.78      0.79   3.821E+00   0.93 |
  |    O          38      -85.36      88.83      0.34  -3.153E+00   0.09 |
  |    O          39       -8.47      60.78      0.79   3.821E+00   0.93 |
  |    O          40      -85.36      88.83      0.34  -3.153E+00   0.09 |
  |    O          41      -12.74      56.97      0.73   3.852E+00   0.89 |
  |    O          42      -92.26      94.76      0.24  -3.172E+00   0.10 |
  |    O          43      -86.84      79.81      0.06  -3.286E+00   0.08 |
  |    O          44     -160.90     152.43      0.78   1.038E+00   0.72 |
  |    O          45     -162.24     158.64      0.81   1.099E+00   0.73 |
  |    O          46     -161.13     148.47      0.79   1.063E+00   0.61 |
  |    O          47      -88.47      86.08      0.08  -3.189E+00   0.09 |
  |    O          48      -87.90      85.17      0.39  -3.204E+00   0.10 |
  |    O          49      -88.47      86.08      0.08  -3.189E+00   0.09 |
  |    O          50      -87.90      85.17      0.39  -3.204E+00   0.10 |
  |    O          51     -161.13     148.47      0.79   1.063E+00   0.61 |
  |    O          52     -162.24     158.64      0.81   1.099E+00   0.73 |
  |    O          53      -88.47      86.08      0.08  -3.189E+00   0.09 |
  |    O          54      -87.90      85.17      0.39  -3.204E+00   0.10 |
  |    O          55      -88.47      86.08      0.08  -3.189E+00   0.09 |
  |    O          56      -87.90      85.16      0.39  -3.204E+00   0.10 |
  |    Zr          1     1622.83    -125.58      0.05  -3.638E+01   0.26 |
  |    Zr          2     1613.72    -116.86      0.13  -3.646E+01   0.06 |
  |    Zr          3     1613.72    -116.87      0.13  -3.646E+01   0.06 |
  |    Zr          4     1613.72    -116.86      0.13  -3.646E+01   0.06 |
  |    Zr          5     1613.72    -116.87      0.13  -3.646E+01   0.06 |
  |    Zr          6     1627.11    -122.13      0.13  -3.722E+01   0.08 |
  |    Zr          7     1627.11    -122.12      0.13  -3.722E+01   0.08 |
  |    Sn          1     3252.41     -64.03      0.30   1.222E+02   0.11 |
  |    Sn          2     3252.41     -64.02      0.30   1.222E+02   0.11 |
  |    Sn          3     3242.34     -31.00      0.05   1.309E+02   0.05 |
  |    Sn          4     3255.85     -62.45      0.45   1.243E+02   0.05 |
  |    Sn          5     3255.85     -62.46      0.45   1.243E+02   0.05 |
  |    Sn          6     3255.85     -62.45      0.45   1.243E+02   0.05 |
  |    Sn          7     3255.85     -62.46      0.45   1.243E+02   0.05 |
  |    Sn          8     3254.16     -64.39      0.34   1.236E+02   0.35 |
  |    Sn          9     3254.16     -64.39      0.34   1.236E+02   0.35 |
  |    La          1     4706.78     770.41      0.10  -8.588E+01   0.16 |
  |    La          2     4654.05     625.22      0.01  -8.133E+01   0.00 |
  |    La          3     4654.05     625.21      0.01  -8.133E+01   0.00 |
  |    La          4     4650.39     652.19      0.00  -8.134E+01   0.03 |
  |    La          5     4654.05     625.22      0.01  -8.133E+01   0.00 |
  |    La          6     4654.05     625.21      0.01  -8.133E+01   0.00 |
  |    La          7     4650.39     652.19      0.00  -8.134E+01   0.03 |
  |    La          8     4508.14     223.98      0.02  -7.261E+01   0.01 |
  |    La          9     4603.10     528.04      0.08  -7.777E+01   0.08 |
  |    La         10     4603.10     528.03      0.08  -7.777E+01   0.08 |
  |    La         11     4603.10     528.04      0.08  -7.777E+01   0.08 |
  |    La         12     4603.10     528.03      0.08  -7.777E+01   0.08 |
  |    La         13     4703.63     777.92      0.10  -8.463E+01   0.16 |
  |    La         14     4604.38     502.00      0.08  -7.878E+01   0.10 |
  |    La         15     4604.38     502.00      0.08  -7.878E+01   0.10 |
  |    La         16     4703.63     777.92      0.10  -8.463E+01   0.16 |
  ========================================================================
 
 *********************** Forces ***********************
 *                                                    *
 *            Cartesian components (eV/A)             *
 * -------------------------------------------------- *
 *                   x            y            z      *
 *                                                    *
 * O         1      0.02206     -0.00463     -0.00463 *
 * O         2     -0.01448     -0.00538      0.01216 *
 * O         3      0.00618      0.00111      0.00111 *
 * O         4     -0.01448      0.01216     -0.00538 *
 * O         5     -0.00618     -0.00111     -0.00111 *
 * O         6     -0.02206      0.00463      0.00463 *
 * O         7      0.01448     -0.01216      0.00538 *
 * O         8      0.01448      0.00538     -0.01216 *
 * O         9      0.01184      0.00672      0.00672 *
 * O        10     -0.01620     -0.00534      0.01777 *
 * O        11      0.03936     -0.00172     -0.00172 *
 * O        12     -0.01157     -0.00050      0.00232 *
 * O        13     -0.00037     -0.01221      0.00299 *
 * O        14     -0.01282      0.00919     -0.00889 *
 * O        15      0.00320     -0.00888      0.03207 *
 * O        16      0.01507      0.01268      0.01090 *
 * O        17     -0.00037      0.00299     -0.01220 *
 * O        18     -0.00920     -0.01054      0.02024 *
 * O        19      0.00320      0.03207     -0.00888 *
 * O        20      0.00350      0.00710      0.01024 *
 * O        21      0.00920     -0.02024      0.01054 *
 * O        22      0.00037      0.01221     -0.00299 *
 * O        23     -0.00350     -0.01024     -0.00710 *
 * O        24     -0.00320      0.00888     -0.03207 *
 * O        25     -0.03936      0.00172      0.00172 *
 * O        26      0.01157     -0.00232      0.00050 *
 * O        27     -0.01184     -0.00672     -0.00672 *
 * O        28      0.01620     -0.01777      0.00534 *
 * O        29     -0.01507     -0.01090     -0.01268 *
 * O        30     -0.00320     -0.03207      0.00888 *
 * O        31      0.01282      0.00889     -0.00919 *
 * O        32      0.00037     -0.00299      0.01220 *
 * O        33      0.01620      0.00534     -0.01777 *
 * O        34      0.01157      0.00050     -0.00232 *
 * O        35      0.01282     -0.00919      0.00889 *
 * O        36     -0.01507     -0.01268     -0.01090 *
 * O        37      0.00920      0.01054     -0.02024 *
 * O        38     -0.00350     -0.00710     -0.01024 *
 * O        39     -0.00920      0.02024     -0.01054 *
 * O        40      0.00350      0.01024      0.00710 *
 * O        41     -0.01157      0.00232     -0.00050 *
 * O        42     -0.01620      0.01777     -0.00534 *
 * O        43      0.01507      0.01090      0.01268 *
 * O        44     -0.01282     -0.00889      0.00919 *
 * O        45      0.00366     -0.00458     -0.00458 *
 * O        46      0.01112      0.00177      0.00177 *
 * O        47      0.03190     -0.00218     -0.01372 *
 * O        48     -0.01317     -0.01580      0.01123 *
 * O        49     -0.03190      0.01371      0.00218 *
 * O        50      0.01317     -0.01123      0.01580 *
 * O        51     -0.01112     -0.00177     -0.00177 *
 * O        52     -0.00366      0.00458      0.00458 *
 * O        53     -0.03190      0.00218      0.01372 *
 * O        54      0.01317      0.01580     -0.01123 *
 * O        55      0.03190     -0.01372     -0.00218 *
 * O        56     -0.01317      0.01123     -0.01580 *
 * Zr        1      0.00000     -0.00000     -0.00000 *
 * Zr        2     -0.02304     -0.02569     -0.00004 *
 * Zr        3      0.02304      0.00004      0.02569 *
 * Zr        4      0.02304      0.02569      0.00003 *
 * Zr        5     -0.02304     -0.00004     -0.02569 *
 * Zr        6      0.01303      0.02068      0.02068 *
 * Zr        7     -0.01303     -0.02068     -0.02068 *
 * Sn        1      0.00000     -0.00066      0.00065 *
 * Sn        2      0.00000      0.00065     -0.00065 *
 * Sn        3     -0.00000      0.00000     -0.00000 *
 * Sn        4     -0.01965     -0.00608      0.00509 *
 * Sn        5      0.01965     -0.00509      0.00608 *
 * Sn        6      0.01965      0.00608     -0.00509 *
 * Sn        7     -0.01965      0.00509     -0.00608 *
 * Sn        8      0.00000     -0.00000      0.00000 *
 * Sn        9      0.00000      0.00000      0.00000 *
 * La        1      0.00000      0.00000      0.00000 *
 * La        2      0.02072      0.01465     -0.01017 *
 * La        3     -0.02073      0.01017     -0.01465 *
 * La        4     -0.00000     -0.00689      0.00690 *
 * La        5     -0.02073     -0.01465      0.01017 *
 * La        6      0.02073     -0.01017      0.01465 *
 * La        7     -0.00000      0.00689     -0.00689 *
 * La        8      0.00000     -0.00000      0.00000 *
 * La        9      0.02635     -0.00016     -0.00376 *
 * La       10     -0.02635      0.00376      0.00016 *
 * La       11     -0.02635      0.00016      0.00376 *
 * La       12      0.02635     -0.00376     -0.00016 *
 * La       13     -0.00000      0.00000     -0.00000 *
 * La       14      0.00001     -0.00483     -0.00483 *
 * La       15     -0.00001      0.00483      0.00483 *
 * La       16     -0.00000     -0.00000     -0.00000 *
 *                                                    *
 ******************************************************
 
 ***************** Stress Tensor *****************
 *                                               *
 *          Cartesian components (GPa)           *
 * --------------------------------------------- *
 *             x             y             z     *
 *                                               *
 *  x     -0.002487     -0.002387     -0.002388  *
 *  y     -0.002387     -0.000442     -0.002776  *
 *  z     -0.002388     -0.002776     -0.000442  *
 *                                               *
 *  Pressure:    0.0011                          *
 *                                               *
 *************************************************
 
 Pseudo atomic calculation performed for O 2s2 2p4
 
 Converged in 39 iterations to a total energy of -432.6554 eV
 
 
 Pseudo atomic calculation performed for Zr 4s2 4p6 4d2 5s2
 
 Converged in 38 iterations to a total energy of -1285.4931 eV
 
 
 Pseudo atomic calculation performed for Sn 4d10 5s2 5p2
 
 Converged in 48 iterations to a total energy of -2044.5413 eV
 
 
 Pseudo atomic calculation performed for La 5s2 5p6 5d1 6s2
 
 Converged in 34 iterations to a total energy of -968.0373 eV
 
Charge spilling parameter for spin component 1 = 0.25%
 
     Atomic Populations (Mulliken)
     -----------------------------
Species   Ion     s      p      d      f     Total  Charge (e)
==============================================================
  O        1     1.87   5.00   0.00   0.00   6.87    -0.87
  O        2     1.87   5.00   0.00   0.00   6.87    -0.87
  O        3     1.87   5.00   0.00   0.00   6.87    -0.87
  O        4     1.87   5.00   0.00   0.00   6.87    -0.87
  O        5     1.87   5.00   0.00   0.00   6.87    -0.87
  O        6     1.87   5.00   0.00   0.00   6.87    -0.87
  O        7     1.87   5.00   0.00   0.00   6.87    -0.87
  O        8     1.87   5.00   0.00   0.00   6.87    -0.87
  O        9     1.87   4.99   0.00   0.00   6.86    -0.86
  O       10     1.87   4.99   0.00   0.00   6.86    -0.86
  O       11     1.88   5.02   0.00   0.00   6.91    -0.91
  O       12     1.88   5.02   0.00   0.00   6.91    -0.91
  O       13     1.88   5.03   0.00   0.00   6.91    -0.91
  O       14     1.86   4.95   0.00   0.00   6.80    -0.80
  O       15     1.87   4.99   0.00   0.00   6.86    -0.86
  O       16     1.87   4.99   0.00   0.00   6.86    -0.86
  O       17     1.88   5.03   0.00   0.00   6.91    -0.91
  O       18     1.88   5.03   0.00   0.00   6.91    -0.91
  O       19     1.87   4.99   0.00   0.00   6.86    -0.86
  O       20     1.87   4.99   0.00   0.00   6.86    -0.86
  O       21     1.88   5.02   0.00   0.00   6.91    -0.91
  O       22     1.88   5.03   0.00   0.00   6.91    -0.91
  O       23     1.87   4.99   0.00   0.00   6.86    -0.86
  O       24     1.87   4.99   0.00   0.00   6.86    -0.86
  O       25     1.88   5.02   0.00   0.00   6.91    -0.91
  O       26     1.88   5.02   0.00   0.00   6.91    -0.91
  O       27     1.87   4.99   0.00   0.00   6.86    -0.86
  O       28     1.87   4.99   0.00   0.00   6.86    -0.86
  O       29     1.87   4.99   0.00   0.00   6.86    -0.86
  O       30     1.87   4.99   0.00   0.00   6.86    -0.86
  O       31     1.86   4.95   0.00   0.00   6.80    -0.80
  O       32     1.88   5.03   0.00   0.00   6.91    -0.91
  O       33     1.87   4.99   0.00   0.00   6.86    -0.86
  O       34     1.88   5.02   0.00   0.00   6.91    -0.91
  O       35     1.86   4.95   0.00   0.00   6.80    -0.80
  O       36     1.87   4.99   0.00   0.00   6.86    -0.86
  O       37     1.88   5.02   0.00   0.00   6.91    -0.91
  O       38     1.87   4.99   0.00   0.00   6.86    -0.86
  O       39     1.88   5.03   0.00   0.00   6.91    -0.91
  O       40     1.87   4.99   0.00   0.00   6.86    -0.86
  O       41     1.88   5.02   0.00   0.00   6.91    -0.91
  O       42     1.87   4.99   0.00   0.00   6.86    -0.86
  O       43     1.87   4.99   0.00   0.00   6.86    -0.86
  O       44     1.86   4.95   0.00   0.00   6.80    -0.80
  O       45     1.86   4.95   0.00   0.00   6.80    -0.80
  O       46     1.86   4.95   0.00   0.00   6.80    -0.80
  O       47     1.87   4.99   0.00   0.00   6.86    -0.86
  O       48     1.87   4.99   0.00   0.00   6.86    -0.86
  O       49     1.87   4.99   0.00   0.00   6.86    -0.86
  O       50     1.87   4.99   0.00   0.00   6.86    -0.86
  O       51     1.86   4.95   0.00   0.00   6.80    -0.80
  O       52     1.86   4.95   0.00   0.00   6.80    -0.80
  O       53     1.87   4.99   0.00   0.00   6.86    -0.86
  O       54     1.87   4.99   0.00   0.00   6.86    -0.86
  O       55     1.87   4.99   0.00   0.00   6.86    -0.86
  O       56     1.87   4.99   0.00   0.00   6.86    -0.86
  Zr       1     2.37   6.49   1.92   0.00  10.78     1.22
  Zr       2     2.37   6.49   1.92   0.00  10.78     1.22
  Zr       3     2.37   6.49   1.92   0.00  10.78     1.22
  Zr       4     2.37   6.49   1.92   0.00  10.78     1.22
  Zr       5     2.37   6.49   1.92   0.00  10.78     1.22
  Zr       6     2.37   6.48   1.92   0.00  10.77     1.23
  Zr       7     2.37   6.48   1.92   0.00  10.77     1.23
  Sn       1     1.05   1.31  10.00   0.00  12.36     1.64
  Sn       2     1.05   1.31  10.00   0.00  12.36     1.64
  Sn       3     1.05   1.31  10.00   0.00  12.36     1.64
  Sn       4     1.05   1.31  10.00   0.00  12.36     1.64
  Sn       5     1.05   1.31  10.00   0.00  12.36     1.64
  Sn       6     1.05   1.31  10.00   0.00  12.36     1.64
  Sn       7     1.05   1.31  10.00   0.00  12.36     1.64
  Sn       8     1.05   1.31  10.00   0.00  12.36     1.64
  Sn       9     1.05   1.31  10.00   0.00  12.36     1.64
  La       1     2.04   6.16   1.20   0.00   9.39     1.61
  La       2     2.07   6.17   1.19   0.00   9.44     1.56
  La       3     2.07   6.17   1.19   0.00   9.44     1.56
  La       4     2.04   6.17   1.19   0.00   9.40     1.60
  La       5     2.07   6.17   1.19   0.00   9.44     1.56
  La       6     2.07   6.17   1.19   0.00   9.44     1.56
  La       7     2.04   6.17   1.19   0.00   9.40     1.60
  La       8     2.12   6.22   1.19   0.00   9.53     1.47
  La       9     2.07   6.18   1.19   0.00   9.44     1.56
  La      10     2.07   6.18   1.19   0.00   9.44     1.56
  La      11     2.07   6.18   1.19   0.00   9.44     1.56
  La      12     2.07   6.18   1.19   0.00   9.44     1.56
  La      13     2.02   6.16   1.20   0.00   9.37     1.63
  La      14     2.09   6.19   1.19   0.00   9.47     1.53
  La      15     2.09   6.19   1.19   0.00   9.47     1.53
  La      16     2.02   6.16   1.20   0.00   9.37     1.63
==============================================================
 
            Bond              Population      Length (A)
============================================================
         O 36 -- Sn 9              0.35        2.09825
         O 16 -- Sn 9              0.35        2.09825
         O 29 -- Sn 8              0.35        2.09825
         O 43 -- Sn 8              0.35        2.09825
         O 49 -- Sn 1              0.34        2.10231
         O 47 -- Sn 1              0.34        2.10231
         O 53 -- Sn 2              0.34        2.10231
         O 55 -- Sn 2              0.34        2.10231
         O 33 -- Sn 6              0.34        2.10246
         O 28 -- Sn 5              0.34        2.10246
         O 10 -- Sn 4              0.34        2.10246
         O 42 -- Sn 7              0.34        2.10246
         O 9  -- Sn 3              0.34        2.10246
         O 27 -- Sn 3              0.34        2.10246
         O 15 -- Sn 6              0.34        2.10451
         O 24 -- Sn 4              0.34        2.10451
         O 30 -- Sn 7              0.34        2.10451
         O 19 -- Sn 5              0.34        2.10451
         O 56 -- Sn 5              0.34        2.10560
         O 50 -- Sn 7              0.34        2.10560
         O 48 -- Sn 6              0.34        2.10560
         O 54 -- Sn 4              0.34        2.10560
         O 23 -- Sn 3              0.34        2.10565
         O 38 -- Sn 3              0.34        2.10565
         O 40 -- Sn 3              0.34        2.10565
         O 20 -- Sn 3              0.34        2.10565
         O 52 -- Zr 1              0.41        2.11023
         O 45 -- Zr 1              0.41        2.11023
         O 32 -- Sn 6              0.34        2.11040
         O 17 -- Sn 4              0.34        2.11040
         O 13 -- Sn 7              0.34        2.11040
         O 22 -- Sn 5              0.34        2.11040
         O 45 -- Zr 7              0.42        2.11141
         O 52 -- Zr 6              0.42        2.11141
         O 18 -- Sn 2              0.34        2.11294
         O 37 -- Sn 1              0.34        2.11294
         O 21 -- Sn 2              0.34        2.11294
         O 39 -- Sn 1              0.34        2.11294
         O 37 -- Sn 5              0.34        2.11346
         O 18 -- Sn 7              0.34        2.11346
         O 39 -- Sn 4              0.34        2.11346
         O 21 -- Sn 6              0.34        2.11346
         O 13 -- Sn 8              0.33        2.11541
         O 22 -- Sn 8              0.33        2.11541
         O 32 -- Sn 9              0.33        2.11541
         O 17 -- Sn 9              0.33        2.11541
         O 26 -- Sn 2              0.33        2.11542
         O 41 -- Sn 1              0.33        2.11542
         O 12 -- Sn 2              0.33        2.11542
         O 34 -- Sn 1              0.33        2.11542
         O 26 -- Sn 9              0.33        2.11637
         O 34 -- Sn 8              0.33        2.11637
         O 12 -- Sn 8              0.33        2.11637
         O 41 -- Sn 9              0.33        2.11637
         O 14 -- Zr 4              0.43        2.11676
         O 44 -- Zr 3              0.43        2.11676
         O 35 -- Zr 2              0.43        2.11676
         O 31 -- Zr 5              0.43        2.11676
         O 33 -- Zr 3              0.43        2.11684
         O 10 -- Zr 5              0.43        2.11684
         O 42 -- Zr 2              0.43        2.11684
         O 28 -- Zr 4              0.43        2.11684
         O 25 -- Sn 4              0.34        2.11895
         O 11 -- Sn 6              0.34        2.11895
         O 25 -- Sn 7              0.34        2.11895
         O 11 -- Sn 5              0.34        2.11895
         O 9  -- Zr 6              0.44        2.11993
         O 27 -- Zr 7              0.44        2.11993
         O 31 -- Zr 7              0.42        2.12016
         O 44 -- Zr 6              0.42        2.12016
         O 14 -- Zr 6              0.42        2.12016
         O 35 -- Zr 7              0.42        2.12016
         O 51 -- Zr 2              0.43        2.12027
         O 46 -- Zr 4              0.43        2.12027
         O 46 -- Zr 3              0.43        2.12027
         O 51 -- Zr 5              0.43        2.12027
         O 55 -- Zr 2              0.43        2.12149
         O 49 -- Zr 4              0.43        2.12149
         O 47 -- Zr 5              0.43        2.12149
         O 53 -- Zr 3              0.43        2.12149
         O 20 -- Zr 4              0.45        2.12165
         O 40 -- Zr 3              0.45        2.12165
         O 38 -- Zr 2              0.45        2.12165
         O 23 -- Zr 5              0.45        2.12165
         O 19 -- Zr 7              0.44        2.12194
         O 30 -- Zr 6              0.44        2.12194
         O 15 -- Zr 7              0.44        2.12194
         O 24 -- Zr 6              0.44        2.12194
         O 43 -- Zr 2              0.44        2.12247
         O 16 -- Zr 5              0.44        2.12247
         O 29 -- Zr 4              0.44        2.12247
         O 36 -- Zr 3              0.44        2.12247
         O 56 -- Zr 1              0.44        2.12536
         O 54 -- Zr 1              0.44        2.12536
         O 48 -- Zr 1              0.44        2.12536
         O 50 -- Zr 1              0.44        2.12536
         O 6  -- La 1              0.19        2.35683
         O 1  -- La 1              0.19        2.35683
         O 4  -- La 16             0.18        2.35717
         O 2  -- La 13             0.18        2.35717
         O 8  -- La 13             0.18        2.35717
         O 7  -- La 16             0.18        2.35717
         O 2  -- La 7              0.17        2.35850
         O 8  -- La 4              0.17        2.35850
         O 4  -- La 4              0.17        2.35850
         O 7  -- La 7              0.17        2.35850
         O 8  -- La 5              0.18        2.35856
         O 7  -- La 3              0.18        2.35856
         O 4  -- La 6              0.18        2.35856
         O 2  -- La 2              0.18        2.35856
         O 3  -- La 3              0.17        2.35935
         O 5  -- La 6              0.17        2.35935
         O 5  -- La 2              0.17        2.35935
         O 3  -- La 5              0.17        2.35935
         O 6  -- La 14             0.17        2.36003
         O 1  -- La 15             0.17        2.36003
         O 8  -- La 10             0.17        2.36026
         O 2  -- La 12             0.17        2.36026
         O 4  -- La 9              0.17        2.36026
         O 7  -- La 11             0.17        2.36026
         O 5  -- La 15             0.17        2.36030
         O 3  -- La 14             0.17        2.36030
         O 1  -- La 10             0.16        2.36098
         O 1  -- La 11             0.16        2.36098
         O 6  -- La 9              0.16        2.36098
         O 6  -- La 12             0.16        2.36098
         O 5  -- La 8              0.17        2.36400
         O 3  -- La 8              0.17        2.36400
         O 49 -- La 12             0.17        2.66816
         O 55 -- La 10             0.17        2.66816
         O 47 -- La 11             0.17        2.66816
         O 53 -- La 9              0.17        2.66816
         O 46 -- La 15             0.13        2.66828
         O 51 -- La 14             0.13        2.66828
         O 19 -- La 9              0.18        2.66999
         O 15 -- La 12             0.18        2.66999
         O 30 -- La 11             0.18        2.66999
         O 24 -- La 10             0.18        2.66999
         O 21 -- La 8              0.24        2.67021
         O 18 -- La 8              0.24        2.67021
         O 37 -- La 8              0.24        2.67021
         O 39 -- La 8              0.24        2.67021
         O 10 -- La 7              0.17        2.67058
         O 42 -- La 4              0.17        2.67058
         O 33 -- La 4              0.17        2.67058
         O 28 -- La 7              0.17        2.67058
         O 44 -- La 2              0.13        2.67130
         O 31 -- La 5              0.13        2.67130
         O 35 -- La 3              0.13        2.67130
         O 14 -- La 6              0.13        2.67130
         O 35 -- La 16             0.13        2.67170
         O 31 -- La 13             0.13        2.67170
         O 14 -- La 16             0.13        2.67170
         O 44 -- La 13             0.13        2.67170
         O 52 -- La 6              0.13        2.67187
         O 45 -- La 5              0.13        2.67187
         O 45 -- La 3              0.13        2.67187
         O 52 -- La 2              0.13        2.67187
         O 11 -- La 8              0.24        2.67234
         O 25 -- La 8              0.24        2.67234
         O 32 -- La 12             0.23        2.67256
         O 13 -- La 11             0.23        2.67256
         O 22 -- La 9              0.23        2.67256
         O 17 -- La 10             0.23        2.67256
         O 34 -- La 11             0.24        2.67300
         O 12 -- La 9              0.24        2.67300
         O 41 -- La 12             0.24        2.67300
         O 26 -- La 10             0.24        2.67300
         O 18 -- La 5              0.24        2.67319
         O 39 -- La 3              0.24        2.67319
         O 21 -- La 6              0.24        2.67319
         O 37 -- La 2              0.24        2.67319
         O 22 -- La 14             0.24        2.67411
         O 32 -- La 14             0.24        2.67411
         O 13 -- La 15             0.24        2.67411
         O 17 -- La 15             0.24        2.67411
         O 11 -- La 14             0.25        2.67420
         O 25 -- La 15             0.25        2.67420
         O 29 -- La 15             0.18        2.67426
         O 43 -- La 14             0.18        2.67426
         O 16 -- La 14             0.18        2.67426
         O 36 -- La 15             0.18        2.67426
         O 41 -- La 2              0.24        2.67435
         O 26 -- La 5              0.24        2.67435
         O 34 -- La 3              0.24        2.67435
         O 12 -- La 6              0.24        2.67435
         O 20 -- La 12             0.18        2.67476
         O 38 -- La 10             0.18        2.67476
         O 40 -- La 9              0.18        2.67476
         O 23 -- La 11             0.18        2.67476
         O 36 -- La 2              0.18        2.67487
         O 16 -- La 5              0.18        2.67487
         O 43 -- La 3              0.18        2.67487
         O 29 -- La 6              0.18        2.67487
         O 46 -- La 1              0.14        2.67519
         O 51 -- La 1              0.14        2.67519
         O 48 -- La 6              0.19        2.67537
         O 50 -- La 5              0.19        2.67537
         O 54 -- La 3              0.19        2.67537
         O 56 -- La 2              0.19        2.67537
         O 27 -- La 12             0.18        2.67671
         O 27 -- La 9              0.18        2.67671
         O 9  -- La 10             0.18        2.67671
         O 9  -- La 11             0.18        2.67671
         O 10 -- La 13             0.17        2.67703
         O 28 -- La 16             0.17        2.67703
         O 42 -- La 16             0.17        2.67703
         O 33 -- La 13             0.17        2.67703
         O 50 -- La 4              0.18        2.67703
         O 54 -- La 7              0.18        2.67703
         O 48 -- La 4              0.18        2.67703
         O 56 -- La 7              0.18        2.67703
         O 23 -- La 7              0.18        2.67771
         O 20 -- La 7              0.18        2.67771
         O 38 -- La 4              0.18        2.67771
         O 40 -- La 4              0.18        2.67771
         O 53 -- La 1              0.18        2.68179
         O 47 -- La 1              0.18        2.68179
         O 49 -- La 1              0.18        2.68179
         O 55 -- La 1              0.18        2.68179
         O 24 -- La 13             0.17        2.68212
         O 30 -- La 16             0.17        2.68212
         O 15 -- La 13             0.17        2.68212
         O 19 -- La 16             0.17        2.68212
         O 42 -- O 50             -0.06        2.79105
         O 33 -- O 48             -0.06        2.79105
         O 10 -- O 54             -0.06        2.79105
         O 28 -- O 56             -0.06        2.79105
         O 41 -- O 49             -0.06        2.79388
         O 34 -- O 47             -0.06        2.79388
         O 12 -- O 53             -0.06        2.79388
         O 26 -- O 55             -0.06        2.79388
         O 15 -- O 32             -0.06        2.79615
         O 19 -- O 22             -0.06        2.79615
         O 17 -- O 24             -0.06        2.79615
         O 13 -- O 30             -0.06        2.79615
         O 36 -- O 41             -0.06        2.79705
         O 16 -- O 26             -0.06        2.79705
         O 12 -- O 29             -0.06        2.79705
         O 34 -- O 43             -0.06        2.79705
         O 16 -- O 32             -0.06        2.79842
         O 22 -- O 43             -0.06        2.79842
         O 17 -- O 36             -0.06        2.79842
         O 13 -- O 29             -0.06        2.79842
         O 10 -- O 24             -0.06        2.79939
         O 15 -- O 33             -0.06        2.79939
         O 30 -- O 42             -0.06        2.79939
         O 19 -- O 28             -0.06        2.79939
         O 53 -- O 55             -0.06        2.80104
         O 47 -- O 49             -0.06        2.80104
         O 20 -- O 27             -0.06        2.80325
         O 27 -- O 40             -0.06        2.80325
         O 9  -- O 23             -0.06        2.80325
         O 9  -- O 38             -0.06        2.80325
         O 20 -- O 23             -0.06        2.80368
         O 38 -- O 40             -0.06        2.80368
         O 37 -- O 39             -0.05        2.80431
         O 18 -- O 21             -0.05        2.80431
         O 18 -- O 50             -0.06        2.80477
         O 37 -- O 56             -0.06        2.80477
         O 21 -- O 48             -0.06        2.80477
         O 39 -- O 54             -0.06        2.80477
         O 13 -- O 34             -0.05        2.80643
         O 32 -- O 41             -0.05        2.80643
         O 12 -- O 22             -0.05        2.80643
         O 17 -- O 26             -0.05        2.80643
         O 18 -- O 26             -0.05        2.80781
         O 37 -- O 41             -0.05        2.80781
         O 34 -- O 39             -0.05        2.80781
         O 12 -- O 21             -0.05        2.80781
         O 11 -- O 32             -0.05        2.81189
         O 11 -- O 22             -0.05        2.81189
         O 17 -- O 25             -0.05        2.81189
         O 13 -- O 25             -0.05        2.81189
         O 11 -- O 21             -0.05        2.81340
         O 25 -- O 39             -0.05        2.81340
         O 11 -- O 37             -0.05        2.81340
         O 18 -- O 25             -0.05        2.81340
         O 31 -- O 45             -0.03        2.81692
         O 35 -- O 45             -0.03        2.81692
         O 14 -- O 52             -0.03        2.81692
         O 44 -- O 52             -0.03        2.81692
         O 14 -- O 28             -0.03        2.81900
         O 35 -- O 42             -0.03        2.81900
         O 10 -- O 31             -0.03        2.81900
         O 33 -- O 44             -0.03        2.81900
         O 48 -- O 52             -0.03        2.82129
         O 45 -- O 54             -0.03        2.82129
         O 45 -- O 50             -0.03        2.82129
         O 52 -- O 56             -0.03        2.82129
         O 38 -- O 42             -0.03        2.82340
         O 20 -- O 28             -0.03        2.82340
         O 10 -- O 23             -0.03        2.82340
         O 33 -- O 40             -0.03        2.82340
         O 20 -- O 49             -0.03        2.82537
         O 38 -- O 55             -0.03        2.82537
         O 23 -- O 47             -0.03        2.82537
         O 40 -- O 53             -0.03        2.82537
         O 43 -- O 51             -0.03        2.82589
         O 29 -- O 46             -0.03        2.82589
         O 16 -- O 51             -0.03        2.82589
         O 36 -- O 46             -0.03        2.82589
         O 14 -- O 29             -0.03        2.82648
         O 35 -- O 43             -0.03        2.82648
         O 36 -- O 44             -0.03        2.82648
         O 16 -- O 31             -0.03        2.82648
         O 24 -- O 44             -0.03        2.82790
         O 14 -- O 30             -0.03        2.82790
         O 15 -- O 31             -0.03        2.82790
         O 19 -- O 35             -0.03        2.82790
         O 19 -- O 27             -0.03        2.82814
         O 15 -- O 27             -0.03        2.82814
         O 9  -- O 30             -0.03        2.82814
         O 9  -- O 24             -0.03        2.82814
         O 47 -- O 51             -0.03        2.82883
         O 46 -- O 53             -0.03        2.82883
         O 51 -- O 55             -0.03        2.82883
         O 46 -- O 49             -0.03        2.82883
         O 48 -- O 50             -0.03        2.83392
         O 54 -- O 56             -0.03        2.83392
============================================================
 

Writing analysis data to 26.castep_bin

Writing model to 26.check
 
 A BibTeX formatted list of references used in this run has been written to 
 26.bib
 
Initialisation time =     25.34 s
Calculation time    =   2729.32 s
Finalisation time   =      9.19 s
Total time          =   2763.85 s
Peak Memory Use     = 3591852 kB
  
Overall parallel efficiency rating: Good (74%)                                  
  
Data was distributed by:-
G-vector (64-way); efficiency rating: Good (75%)                                
k-point (14-way); efficiency rating: Excellent (97%)                            
