 +-------------------------------------------------+
 |                                                 |
 |      CCC   AA    SSS  TTTTT  EEEEE  PPPP        |
 |     C     A  A  S       T    E      P   P       |
 |     C     AAAA   SS     T    EEE    PPPP        |
 |     C     A  A     S    T    E      P           |
 |      CCC  A  A  SSS     T    EEEEE  P           |
 |                                                 |
 +-------------------------------------------------+
 |                                                 |
 | Welcome to Academic Release CASTEP version 16.1 |          
 | Ab Initio Total Energy Program                  |
 |                                                 |
 | Authors:                                        |
 | M. Segall, M. Probert, C. Pickard, P. Hasnip,   |
 | S. Clark, K. Refson, J. R. Yates, M. Payne      |
 |                                                 |
 | Contributors:                                   |
 | P. Lindan, P. Haynes, J. White, V. Milman,      |
 | N. Govind, M. Gibson, P. Tulip, V. Cocula,      |
 | B. Montanari, D. Quigley, M. Glover,            |
 | L. Bernasconi, A. Perlov, M. Plummer,           |
 | E. McNellis, J. Meyer, J. Gale, D. Jochym       |
 | J. Aarons, B. Walker, R. Gillen, D. Jones       |
 | T. Green, I. J. Bush, C. J. Armstrong,          |
 | E. J. Higgins, E. L. Brown, M. S. McFly         |
 |                                                 |
 | Copyright (c) 2000 - 2015                       |
 |                                                 |
 |     Distributed under the terms of an           |
 |     Agreement between the United Kingdom        |
 |     Car-Parrinello (UKCP) Consortium,           |
 |     Daresbury Laboratory and Accelrys, Inc.     |
 |                                                 |
 | Please cite                                     |
 |                                                 |
 |     "First principles methods using CASTEP"     |
 |                                                 |
 |         Zeitschrift fuer Kristallographie       |
 |           220(5-6) pp. 567-570 (2005)           |
 |                                                 |
 | S. J. Clark, M. D. Segall, C. J. Pickard,       |
 | P. J. Hasnip, M. J. Probert, K. Refson,         |
 | M. C. Payne                                     |
 |                                                 |
 |       in all publications arising from          |
 |              your use of CASTEP                 |
 |                                                 |
 +-------------------------------------------------+
 
 
 Compiled for linux_x86_64_cray-XT on Tue, 22 Mar 2022 15:42:52 +0000
 from code version b833c1ffcd7d+  Fri, 13 Jun 2014 17:24:31 +0100
 Compiler: Cray Fortran 11.0.4; Optimisation: intermediate
 MATHLIBS: LibSci (LAPACK version 3.6.1)
 FFT Lib : default
 Fundamental constants values: CODATA 2010
 
 Run started: Tue, 29 Mar 2022 12:56:23 -0100
 +-------------------------------------------------+
 |                                                 |
 |           N   N    M   M    RRRR                |
 |           NN  N    MM MM    R   R               |
 |           N N N    M M M    RRRR                |
 |           N  NN    M   M    R  R                |
 |           N   N    M   M    R   R               |
 |                                                 |
 +-------------------------------------------------+
 |                                                 |
 | Welcome to Materials Studio CASTEP-NMR          |
 |                                                 |
 | Authors:                                        |
 | J.R. Yates, C.J. Pickard, F. Mauri              |
 |                                                 |
 | Contributors:                                   |
 | T.F.G. Green, S.A. Joyce                        |
 |                                                 |
 | Copyright (c) 2004 - 2015                       |
 |                                                 |
 | Please cite the appropriate publications in all |
 | work arising from your use of CASTEP NMR.       |
 |                                                 |
 | For NMR Shielding Tensors cite:                 |
 |    "All-electron magnetic response with         |
 |    pseudopotentials: NMR chemical shifts",      |
 |    C. J. Pickard, F. Mauri;                     |
 |    Physical Review B63 245101 (2001), and       |
 |                                                 |
 |    "Calculation of NMR Chemical Shifts          |
 |    for extended systems using                   |
 |    Ultrasoft Pseudopotentials",                 |
 |    J. R. Yates, C. J. Pickard and F. Mauri      |
 |    Physical Review B76 024401 (2007)            |
 |                                                 |
 | For Electric Field Gradients cite:              |
 |   "Accurate First Principles Prediction of 17O  |
 |    NMR Parameters in SiO2: Assignment of the    |
 |    Zeolite Ferrierite Spectrum"                 |
 |    M. Profeta, F. Mauri and C. J. Pickard       |
 |    J. Amer. Chem. Soc. 125 541 (2003)           |
 |                                                 |
 | For Spin-Spin (J) Couplings cite:               |
 |   "A first principles theory of NMR J-coupling  |
 |   in solid-state systems"                       |
 |   S.A. Joyce, J.R. Yates, C.J. Pickard, F. Mauri|
 |   J. Chem. Phys. 127 204107 (2007)              |
 |                                                 |
 |   "Relativistic NMR J-coupling with ultrasoft   |
 |   pseudopotentials and the zeroth-order regular |
 |   approximation"                                |
 |   T.F.G. Green and J.R. Yates                   |
 |   J. Chem. Phys. 140 234106 (2014)              |
 |                                                 |
 +-------------------------------------------------+
 
 
 Atomic calculation performed for O: 1s2 2s2 2p4
 
 Converged in 44 iterations to an ae energy of -2040.855 eV
 
 
 Atomic calculation performed for O: 1s2 2s2 2p4
 
 Exceeded max iterations: converged to 0.000000062 eV
 
   ============================================================                
   | Pseudopotential Report - Date of generation 29-03-2022   |                
   ------------------------------------------------------------                
   | Element: O Ionic charge:  6.00 Level of theory: PBE      |                
   | Atomic Solver: ZORA (scalar)                             |                
   |                                                          |                
   |               Reference Electronic Structure             |                
   |         Orbital         Occupation         Energy        |                
   |            2s              2.000           -0.881        |                
   |            2p              4.000           -0.332        |                
   |                                                          |                
   |                 Pseudopotential Definition               |                
   |        Beta     l      e      Rc     scheme   norm       |                
   |          1      0   -0.881   1.100     qc      0         |                
   |          2      0    0.250   1.100     qc      0         |                
   |          3      1   -0.332   1.100     qc      0         |                
   |          4      1    0.250   1.100     qc      0         |                
   |         loc     2    0.000   1.100     pn      0         |                
   |                                                          |                
   | Augmentation charge Rinner = 0.769                       |                
   | Partial core correction Rc = 0.769                       |                
   ------------------------------------------------------------                
   | "2|1.1|15|18|20|20:21(qc=7)"                             |                
   ------------------------------------------------------------                
   |      Author: Chris J. Pickard, Cambridge University      |                
   ============================================================                
 
 Atomic calculation performed for Zr: 1s2 2s2 2p6 3s2 3p6 3d10 4s2 4p6 4d2 5s2
 
 Converged in 52 iterations to an ae energy of -97719.888 eV
 
 
 Atomic calculation performed for Zr: 1s2 2s2 2p6 3s2 3p6 3d10 4s2 4p6 4d2 5s2
 
 Exceeded max iterations: converged to 0.000000936 eV
 
 Warning: ion_atom_descreen_psp: negative charge density encountered
   ============================================================                
   | Pseudopotential Report - Date of generation 29-03-2022   |                
   ------------------------------------------------------------                
   | Element: Zr Ionic charge: 12.00 Level of theory: PBE     |                
   | Atomic Solver: ZORA (scalar)                             |                
   |                                                          |                
   |               Reference Electronic Structure             |                
   |         Orbital         Occupation         Energy        |                
   |            4s              2.000           -2.003        |                
   |            4p              6.000           -1.193        |                
   |            5s              2.000           -0.163        |                
   |            4d              2.000           -0.132        |                
   |                                                          |                
   |                 Pseudopotential Definition               |                
   |        Beta     l      e      Rc     scheme   norm       |                
   |          1      0   -2.003   2.105     qc      0         |                
   |          2      0   -0.163   2.105     qc      0         |                
   |          3      0    0.250   2.105     qc      0         |                
   |          4      1   -1.193   2.105     qc      0         |                
   |          5      1    0.250   2.105     qc      0         |                
   |          6      2   -0.132   2.105     qc      0         |                
   |          7      2    0.250   2.105     qc      0         |                
   |         loc     3    0.000   2.105     pn      0         |                
   |                                                          |                
   | Augmentation charge Rinner = 1.471                       |                
   | Partial core correction Rc = 1.471                       |                
   ------------------------------------------------------------                
   | "3|2.1|7|8|9|40U:50:41:42"                               |                
   ------------------------------------------------------------                
   |      Author: Chris J. Pickard, Cambridge University      |                
   ============================================================                
 
 Atomic calculation performed for Sn:
 1s2 2s2 2p6 3s2 3p6 3d10 4s2 4p6 4d10 5s2 5p2
 
 Converged in 58 iterations to an ae energy of -167539.320 eV
 
 
 Atomic calculation performed for Sn:
 1s2 2s2 2p6 3s2 3p6 3d10 4s2 4p6 4d10 5s2 5p2
 
 Exceeded max iterations: converged to -0.000000491 eV
 
   ============================================================                
   | Pseudopotential Report - Date of generation 29-03-2022   |                
   ------------------------------------------------------------                
   | Element: Sn Ionic charge: 14.00 Level of theory: PBE     |                
   | Atomic Solver: ZORA (scalar)                             |                
   |                                                          |                
   |               Reference Electronic Structure             |                
   |         Orbital         Occupation         Energy        |                
   |            4d             10.000           -0.950        |                
   |            5s              2.000           -0.388        |                
   |            5p              2.000           -0.136        |                
   |                                                          |                
   |                 Pseudopotential Definition               |                
   |        Beta     l      e      Rc     scheme   norm       |                
   |          1      0   -0.388   2.199     qc      0         |                
   |          2      0    0.250   2.199     qc      0         |                
   |          3      1   -0.136   2.199     qc      0         |                
   |          4      1    0.250   2.199     qc      0         |                
   |          5      2   -0.950   2.199     qc      0         |                
   |          6      2    0.250   2.199     qc      0         |                
   |         loc     3    0.000   2.199     pn      0         |                
   |                                                          |                
   | Augmentation charge Rinner = 1.537                       |                
   | Partial core correction Rc = 1.537                       |                
   ------------------------------------------------------------                
   | "3|2.2|7|8|9|50:51:42"                                   |                
   ------------------------------------------------------------                
   |      Author: Chris J. Pickard, Cambridge University      |                
   ============================================================                
 
 Atomic calculation performed for La:
 1s2 2s2 2p6 3s2 3p6 3d10 4s2 4p6 4d10 5s2 5p6 5d1 6s2
 
 Converged in 55 iterations to an ae energy of -230121.495 eV
 
 
 Atomic calculation performed for La:
 1s2 2s2 2p6 3s2 3p6 3d10 4s2 4p6 4d10 5s2 5p6 5d1 6s2
 
 Exceeded max iterations: converged to 0.000001134 eV
 
 Warning: ion_atom_descreen_psp: negative charge density encountered
   ============================================================                
   | Pseudopotential Report - Date of generation 29-03-2022   |                
   ------------------------------------------------------------                
   | Element: La Ionic charge: 11.00 Level of theory: PBE     |                
   | Atomic Solver: ZORA (scalar)                             |                
   |                                                          |                
   |               Reference Electronic Structure             |                
   |         Orbital         Occupation         Energy        |                
   |            5s              2.000           -1.430        |                
   |            5p              6.000           -0.823        |                
   |            6s              2.000           -0.135        |                
   |            5d              1.000           -0.114        |                
   |                                                          |                
   |                 Pseudopotential Definition               |                
   |        Beta     l      e      Rc     scheme   norm       |                
   |          1      0   -1.430   2.298     qc      0         |                
   |          2      0   -0.135   2.298     qc      0         |                
   |          3      0    0.250   2.298     qc      0         |                
   |          4      1   -0.823   2.298     qc      0         |                
   |          5      1    0.250   2.298     qc      0         |                
   |          6      2   -0.114   2.298     qc      0         |                
   |          7      2    0.250   2.298     qc      0         |                
   |         loc     2    0.000   2.298     pn      0         |                
   |                                                          |                
   | Augmentation charge Rinner = 1.606                       |                
   | Partial core correction Rc = 1.606                       |                
   ------------------------------------------------------------                
   | "2|2.3|5|6|7|50U:60:51:52(qc=4.5)"                       |                
   ------------------------------------------------------------                
   |      Author: Chris J. Pickard, Cambridge University      |                
   ============================================================                
 
 Pseudo atomic calculation performed for O 2s2 2p4
 
 Converged in 39 iterations to a total energy of -432.6554 eV
 
 
 Pseudo atomic calculation performed for Zr 4s2 4p6 4d2 5s2
 
 Converged in 38 iterations to a total energy of -1285.4931 eV
 
 
 Pseudo atomic calculation performed for Sn 4d10 5s2 5p2
 
 Converged in 48 iterations to a total energy of -2044.5413 eV
 
 
 Pseudo atomic calculation performed for La 5s2 5p6 5d1 6s2
 
 Converged in 34 iterations to a total energy of -968.0373 eV
 
 Calculation parallelised over 896 processes.
 Data is distributed by G-vector(64-way) and k-point(14-way)

 ************************************ Title ************************************
 nmr testing

 ***************************** General Parameters ******************************
  
 output verbosity                               : normal  (1)
 write checkpoint data to                       : 70.check
 type of calculation                            : Magnetic Resonance
 stress calculation                             : on
 density difference calculation                 : off
 electron localisation func (ELF) calculation   : off
 Hirshfeld analysis                             : off
 unlimited duration calculation
 timing information                             : on
 memory usage estimate                          : on
 write final potential to formatted file        : off
 write final density to formatted file          : off
 write BibTeX reference list                    : off
 write OTFG pseudopotential files               : on
 checkpoint writing                             : off
  
 output         length unit                     : A
 output           mass unit                     : amu
 output           time unit                     : ps
 output         charge unit                     : e
 output           spin unit                     : hbar/2
 output         energy unit                     : eV
 output          force unit                     : eV/A
 output       velocity unit                     : A/ps
 output       pressure unit                     : GPa
 output     inv_length unit                     : 1/A
 output      frequency unit                     : cm-1
 output force constant unit                     : eV/A**2
 output         volume unit                     : A**3
 output   IR intensity unit                     : (D/A)**2/amu
 output         dipole unit                     : D
 output         efield unit                     : eV/A/e
 output        entropy unit                     : J/mol/K
  
 wavefunctions paging                           : none
 random number generator seed                   : randomised (125623741)
 data distribution                              : optimal for this architecture
 optimization strategy                          : maximize speed(+++)

 *********************** Exchange-Correlation Parameters ***********************
  
 using functional                               : Perdew Burke Ernzerhof
 relativistic treatment                         : ZORA
 DFT+D: Semi-empirical dispersion correction    : off

 ************************* Pseudopotential Parameters **************************
  
 pseudopotential representation                 : reciprocal space
 <beta|phi> representation                      : reciprocal space
 spin-orbit coupling                            : off

 **************************** Basis Set Parameters *****************************
  
 plane wave basis set cut-off                   :   816.3416   eV
 size of standard grid                          :     1.7500
 size of   fine   gmax                          :    25.6161   1/A
 finite basis set correction                    : automatic
 number of sample energies                      :          3
           sample  spacing                      :     5.0000   eV

 **************************** Electronic Parameters ****************************
  
 number of  electrons                           :  722.0    
 net charge of system                           :  0.000    
 treating system as non-spin-polarized
 number of bands                                :        433

 ********************* Electronic Minimization Parameters **********************
  
 Method: Treating system as metallic with density mixing treatment of electrons,
         and number of  SD  steps               :          1
         and number of  CG  steps               :          4
  
 total energy / atom convergence tol.           : 0.1000E-08   eV
 eigen-energy convergence tolerance             : 0.2438E-09   eV
 max force / atom convergence tol.              : ignored
 convergence tolerance window                   :          3   cycles
 max. number of SCF cycles                      :        250
 number of fixed-spin iterations                :         10
 smearing scheme                                : Gaussian
 smearing width                                 : 0.2000       eV
 Fermi energy convergence tolerance             : 0.2721E-13   eV
 periodic dipole correction                     : NONE

 ************************** Density Mixing Parameters **************************
  
 density-mixing scheme                          : Broyden
 max. length of mixing history                  :         20
 charge density mixing amplitude                : 0.8000    
 cut-off energy for mixing                      :  816.3       eV

 *********************** Population Analysis Parameters ************************
  
 Population analysis with cutoff                :  3.000       A

 ************************ Magnetic Resonance Parameters ************************
  
 Magnetic Resonance Property                    : Chemical Shielding + EFG
 Position Operator Method                       : crystal
 max. number of MagRes CG steps                 :        250
 convergence tolerance window                   :          2   cycles
 energy convergence tolerance                   : 0.1000E-11   eV
 band convergence tolerance                     : 0.1000E-08   eV

 *******************************************************************************
  
 
                           -------------------------------
                                      Unit Cell
                           -------------------------------
        Real Lattice(A)                      Reciprocal Lattice(1/A)
  10.8980994   0.0022641  -0.0019461        0.5765396  -0.0001197   0.0001034
   0.0022618  10.8980639   0.0019227       -0.0001198   0.5765415  -0.0001022
  -0.0019544   0.0019317  10.8985714        0.0001030  -0.0001017   0.5765146
 
                       Lattice parameters(A)       Cell Angles
                    a =   10.898100          alpha =   89.979738
                    b =   10.898064          beta  =   90.020504
                    c =   10.898572          gamma =   89.976207
 
                       Current cell volume = 1294.403387       A**3
 
                           -------------------------------
                                     Cell Contents
                           -------------------------------
                         Total number of ions in cell =   88
                      Total number of species in cell =    4
                        Max number of any one species =   56
 
            xxxxxxxxxxxxxxxxxxxxxxxxxxxxxxxxxxxxxxxxxxxxxxxxxxxxxxxxxxxx
            x  Element    Atom        Fractional coordinates of atoms  x
            x            Number           u          v          w      x
            x----------------------------------------------------------x
            x  O            1         0.125108   0.124719   0.125015   x 
            x  O            2         0.624959   0.125005   0.624802   x 
            x  O            3         0.124988   0.625128   0.624924   x 
            x  O            4         0.624947   0.625228   0.125262   x 
            x  O            5         0.874716   0.375089   0.374982   x 
            x  O            6         0.875003   0.874945   0.875201   x 
            x  O            7         0.375134   0.374961   0.875069   x 
            x  O            8         0.375237   0.874930   0.374743   x 
            x  O            9         0.420427   0.125111   0.124994   x 
            x  O           10         0.330545   0.124511   0.624756   x 
            x  O           11         0.829310   0.624070   0.626248   x 
            x  O           12         0.920284   0.623954   0.123827   x 
            x  O           13         0.124445   0.419925   0.124989   x 
            x  O           14         0.625878   0.329410   0.123778   x 
            x  O           15         0.624001   0.829457   0.625591   x 
            x  O           16         0.125547   0.919609   0.624897   x 
            x  O           17         0.125102   0.125383   0.419473   x 
            x  O           18         0.125886   0.624282   0.329283   x 
            x  O           19         0.625465   0.624657   0.830208   x 
            x  O           20         0.626079   0.126023   0.920862   x 
            x  O           21         0.875081   0.670380   0.375011   x 
            x  O           22         0.874501   0.580514   0.875245   x 
            x  O           23         0.374101   0.079303   0.873758   x 
            x  O           24         0.373976   0.170273   0.376170   x 
            x  O           25         0.169939   0.374431   0.375012   x 
            x  O           26         0.079436   0.875864   0.376219   x 
            x  O           27         0.579459   0.874035   0.874426   x 
            x  O           28         0.669602   0.375512   0.875107   x 
            x  O           29         0.875394   0.375095   0.080529   x 
            x  O           30         0.374292   0.375863   0.170726   x 
            x  O           31         0.374665   0.875452   0.669788   x 
            x  O           32         0.875970   0.876027   0.579129   x 
            x  O           33         0.670090   0.874947   0.375214   x 
            x  O           34         0.080549   0.374421   0.875035   x 
            x  O           35         0.376146   0.670663   0.874750   x 
            x  O           36         0.876338   0.079097   0.375924   x 
            x  O           37         0.875397   0.374518   0.669445   x 
            x  O           38         0.375240   0.874558   0.079975   x 
            x  O           39         0.124450   0.330555   0.624964   x 
            x  O           40         0.624946   0.920137   0.124773   x 
            x  O           41         0.919418   0.125544   0.625449   x 
            x  O           42         0.329685   0.624448   0.125525   x 
            x  O           43         0.123945   0.624143   0.920680   x 
            x  O           44         0.624816   0.124981   0.329669   x 
            x  O           45         0.420685   0.626130   0.625236   x 
            x  O           46         0.829086   0.126367   0.124055   x 
            x  O           47         0.124540   0.125397   0.830554   x 
            x  O           48         0.624483   0.625164   0.420014   x 
            x  O           49         0.875530   0.169393   0.874557   x 
            x  O           50         0.374443   0.579653   0.374482   x 
            x  O           51         0.170469   0.875957   0.873869   x 
            x  O           52         0.579743   0.375147   0.375018   x 
            x  O           53         0.874941   0.874846   0.170352   x 
            x  O           54         0.374126   0.373908   0.579324   x 
            x  O           55         0.125163   0.829769   0.124989   x 
            x  O           56         0.625934   0.420479   0.626115   x 
            x  Zr           1         0.500011   0.500039   0.499916   x 
            x  Zr           2         0.250161   0.750219   0.000108   x 
            x  Zr           3         0.749946   0.000043   0.250003   x 
            x  Zr           4         0.000196   0.749804   0.249590   x 
            x  Zr           5         0.499909  -0.000161  -0.000173   x 
            x  Zr           6         0.749548   0.749641   0.500175   x 
            x  Zr           7         0.499842   0.250382   0.250416   x 
            x  Sn           1        -0.000004   0.249984   0.749998   x 
            x  Sn           2         0.751529   0.251493  -0.001458   x 
            x  Sn           3         0.249134   0.000906   0.748971   x 
            x  Sn           4         0.249000   0.249057   0.500866   x 
            x  Sn           5         0.750910   0.499126   0.751019   x 
            x  Sn           6         0.249856   0.499878   0.249979   x 
            x  Sn           7        -0.000891   0.499039  -0.000881   x 
            x  Sn           8         0.500038   0.750043   0.750028   x 
            x  Sn           9         0.001431   0.001452   0.501454   x 
            x  La           1        -0.000044  -0.000356   0.000401   x 
            x  La           2         0.749681   0.249966   0.499631   x 
            x  La           3         0.250342   0.500377   0.750034   x 
            x  La           4         0.499995   0.750006   0.249979   x 
            x  La           5         0.250172   0.749854   0.499614   x 
            x  La           6         0.749846   0.500214   0.250127   x 
            x  La           7         0.500060   0.249943   0.749977   x 
            x  La           8        -0.000233   0.500456   0.499606   x 
            x  La           9         0.749814   0.750259   0.000363   x 
            x  La          10         0.250208  -0.000188   0.249871   x 
            x  La          11         0.250437   0.249765   0.000387   x 
            x  La          12         0.749667  -0.000398   0.749964   x 
            x  La          13         0.500255  -0.000217   0.499658   x 
            x  La          14        -0.000067   0.750053   0.750001   x 
            x  La          15        -0.000226   0.249756   0.250005   x 
            x  La          16         0.499839   0.500200   0.000378   x 
            xxxxxxxxxxxxxxxxxxxxxxxxxxxxxxxxxxxxxxxxxxxxxxxxxxxxxxxxxxxx
 
 
                         No user defined ionic velocities
 
                           -------------------------------
                                   Details of Species
                           -------------------------------
 
                               Mass of species in AMU
                                    O   15.9994000
                                    Zr   91.2240000
                                    Sn  118.7100000
                                    La  138.9055000
 
                          Electric Quadrupole Moment (Barn)
                                    O   -0.0255800 Isotope 17
                                    Zr   -0.1760000 Isotope 91
                                    Sn    1.0000000 No Isotope Defined
                                    La    0.2000000 Isotope139
 
                          Files used for pseudopotentials:
                                    O 2|1.1|15|18|20|20:21(qc=7)
                                    Zr 3|2.1|7|8|9|40U:50:41:42
                                    Sn 3|2.2|7|8|9|50:51:42
                                    La 2|2.3|5|6|7|50U:60:51:52(qc=4.5)
 
                           -------------------------------
                              k-Points For BZ Sampling
                           -------------------------------
                       MP grid size for SCF calculation is  3  3  3
                            with an offset of   0.000  0.000  0.000
                       Number of kpoints used =   14
 
                           -------------------------------
                               Symmetry and Constraints
                           -------------------------------
 
                      Maximum deviation from symmetry =  0.00000         ANG
 
         There are no symmetry operations specified or generated for this cell
                      Number of ionic constraints     = 3
                      Point group of crystal =     1: C1, 1, 1
                      Space group of crystal =     1: P1, P 1
 
 
                         Centre of mass is constrained
             Set iprint > 1 for details of linear ionic constraints
 
                         Number of cell constraints= 0
                         Cell constraints are:  1 2 3 4 5 6
 
                         External pressure/stress (GPa)
                          0.00000   0.00000   0.00000
                                    0.00000   0.00000
                                              0.00000
  
+---------------- MEMORY AND SCRATCH DISK ESTIMATES PER PROCESS --------------+
|                                                     Memory          Disk    |
| Baseline code, static data and system overhead      843.0 MB         0.0 MB |
| BLAS internal memory storage                          0.0 MB         0.0 MB |
| Model and support data                              149.4 MB         0.0 MB |
| Electronic energy minimisation requirements          28.3 MB         0.0 MB |
| Force calculation requirements                        1.5 MB         0.0 MB |
| Stress calculation requirements                       1.8 MB         0.0 MB |
|                                               ----------------------------- |
| Approx. total storage required per process         1020.7 MB         0.0 MB |
|                                                                             |
| Requirements will fluctuate during execution and may exceed these estimates |
+-----------------------------------------------------------------------------+
Calculating finite basis set correction with  3 cut-off energies.
Calculating total energy with cut-off of  806.342eV.
------------------------------------------------------------------------ <-- SCF
SCF loop      Energy           Fermi           Energy gain       Timer   <-- SCF
                               energy          per atom          (sec)   <-- SCF
------------------------------------------------------------------------ <-- SCF
Initial  -5.72049293E+004  0.00000000E+000                        37.16  <-- SCF
      1  -6.52847995E+004  7.42809355E+000   9.18167067E+001      47.89  <-- SCF
      2  -6.78351752E+004  6.57231819E+000   2.89815423E+001      55.30  <-- SCF
      3  -6.79196035E+004  6.30952326E+000   9.59412474E-001      63.45  <-- SCF
      4  -6.79123926E+004  7.59167291E+000  -8.19417730E-002      73.10  <-- SCF
      5  -6.78118414E+004  6.88027168E+000  -1.14262763E+000      82.44  <-- SCF
      6  -6.78130982E+004  6.76513981E+000   1.42815156E-002      94.54  <-- SCF
      7  -6.78127555E+004  6.84873531E+000  -3.89430672E-003     104.68  <-- SCF
      8  -6.78128452E+004  6.85241355E+000   1.02039931E-003     118.48  <-- SCF
      9  -6.78128675E+004  6.85198576E+000   2.52662516E-004     129.60  <-- SCF
     10  -6.78128667E+004  6.85029575E+000  -8.60833607E-006     139.97  <-- SCF
     11  -6.78128665E+004  6.85133205E+000  -3.10078703E-006     150.80  <-- SCF
     12  -6.78128667E+004  6.85114959E+000   2.44988493E-006     162.31  <-- SCF
     13  -6.78128667E+004  6.85065557E+000  -3.47079577E-008     172.21  <-- SCF
     14  -6.78128666E+004  6.85039153E+000  -4.33761304E-007     182.30  <-- SCF
     15  -6.78128666E+004  6.84995542E+000  -1.16490304E-007     193.18  <-- SCF
     16  -6.78128666E+004  6.84975703E+000  -1.73169965E-009     202.49  <-- SCF
     17  -6.78128666E+004  6.84970330E+000  -5.35498061E-009     211.30  <-- SCF
     18  -6.78128666E+004  6.84963491E+000   7.69316184E-010     218.60  <-- SCF
     19  -6.78128666E+004  6.84959612E+000   4.70926686E-010     225.31  <-- SCF
     20  -6.78128666E+004  6.84959880E+000   6.39807830E-011     231.61  <-- SCF
------------------------------------------------------------------------ <-- SCF
 
Final energy, E             =  -67812.86661465     eV
Final free energy (E-TS)    =  -67812.86661465     eV
(energies not corrected for finite basis set)
 
NB est. 0K energy (E-0.5TS)      =  -67812.86661465     eV
 
Calculating total energy with cut-off of  811.342eV.
------------------------------------------------------------------------ <-- SCF
SCF loop      Energy           Fermi           Energy gain       Timer   <-- SCF
                               energy          per atom          (sec)   <-- SCF
------------------------------------------------------------------------ <-- SCF
Initial  -6.78128666E+004  0.00000000E+000                       233.72  <-- SCF
      1  -6.78128691E+004  6.84959423E+000   2.78722621E-005     242.33  <-- SCF
      2  -6.78128691E+004  6.84959423E+000   1.81396066E-010     248.58  <-- SCF
      3  -6.78128691E+004  6.84959062E+000   1.60228973E-008     254.83  <-- SCF
      4  -6.78128691E+004  6.84959724E+000   5.44610050E-010     261.09  <-- SCF
      5  -6.78128691E+004  6.84959523E+000  -7.25584265E-011     267.33  <-- SCF
------------------------------------------------------------------------ <-- SCF
 
Final energy, E             =  -67812.86906887     eV
Final free energy (E-TS)    =  -67812.86906887     eV
(energies not corrected for finite basis set)
 
NB est. 0K energy (E-0.5TS)      =  -67812.86906887     eV
 
Calculating total energy with cut-off of  816.342eV.
------------------------------------------------------------------------ <-- SCF
SCF loop      Energy           Fermi           Energy gain       Timer   <-- SCF
                               energy          per atom          (sec)   <-- SCF
------------------------------------------------------------------------ <-- SCF
Initial  -6.78128691E+004  0.00000000E+000                       269.48  <-- SCF
      1  -6.78128721E+004  6.84959546E+000   3.40848377E-005     278.12  <-- SCF
      2  -6.78128721E+004  6.84959546E+000   2.05019740E-010     284.44  <-- SCF
      3  -6.78128721E+004  6.84958957E+000   2.13295057E-008     290.73  <-- SCF
      4  -6.78128721E+004  6.84959489E+000   6.81992962E-010     297.04  <-- SCF
      5  -6.78128721E+004  6.84959089E+000  -1.82802237E-012     303.37  <-- SCF
------------------------------------------------------------------------ <-- SCF
 
Final energy, E             =  -67812.87207029     eV
Final free energy (E-TS)    =  -67812.87207029     eV
(energies not corrected for finite basis set)
 
NB est. 0K energy (E-0.5TS)      =  -67812.87207029     eV
 
 For future reference: finite basis dEtot/dlog(Ecut) =      -0.440483eV
 Total energy corrected for finite basis set =  -67812.872065 eV
 
  =====================================================================
  +       Calculation of Nuclear Magnetic Resonance Parameters        +
  + ================================================================= +
 
  Starting Calculation of Electric Field Gradient Tensors         |<-- EFG
  +---------------- MEMORY AND SCRATCH DISK ESTIMATES PER PROCESS --------------+
  |                                                     Memory          Disk    |
  | Model and support data                              151.1 MB         0.0 MB |
  | NMR EFG calculation requirements                     27.4 MB         0.0 MB |
  |                                               ----------------------------- |
  | Approx. total storage required per process          178.5 MB         0.0 MB |
  |                                                                             |
  | Requirements will fluctuate during execution and may exceed these estimates |
  +-----------------------------------------------------------------------------+
  Total Time for EFG Tensors                      30.74 sec       |<-- EFG
 
  Starting Calculation of Chemical Shielding Tensors              |<-- NMR
  +---------------- MEMORY AND SCRATCH DISK ESTIMATES PER PROCESS --------------+
  |                                                     Memory          Disk    |
  | Model and support data                              151.1 MB         0.0 MB |
  | NMR chemical shift calculation requirements          90.7 MB         0.0 MB |
  |                                               ----------------------------- |
  | Approx. total storage required per process          241.8 MB         0.0 MB |
  |                                                                             |
  | Requirements will fluctuate during execution and may exceed these estimates |
  +-----------------------------------------------------------------------------+
  Starting k-point:   1 of   1                                    |<-- NMR
  Total Time for step 1 of 6:                    275.14 sec       |<-- NMR
  Total Time for step 2 of 6:                    275.95 sec       |<-- NMR
  Total Time for step 3 of 6:                    276.53 sec       |<-- NMR
  Total Time for step 4 of 6:                    276.30 sec       |<-- NMR
  Total Time for step 5 of 6:                    276.11 sec       |<-- NMR
  Total Time for step 6 of 6:                    275.03 sec       |<-- NMR
  Total Time for Chemical Shielding Tensors     2398.64 sec       |<-- NMR
 
  ========================================================================
  |           Chemical Shielding and Electric Field Gradient Tensors     |
  |----------------------------------------------------------------------|
  |     Nucleus                Shielding tensor             EFG Tensor   |
  |  Species       Ion    Iso(ppm)   Aniso(ppm)  Asym    Cq(MHz)    Eta  |
  |    O           1     -318.42     -10.35      0.31  -3.209E-02   0.66 |
  |    O           2     -318.34      -7.81      0.22   4.399E-02   0.32 |
  |    O           3     -318.24       9.99      0.77  -5.192E-02   0.61 |
  |    O           4     -319.24      -5.84      0.89   4.576E-02   0.24 |
  |    O           5     -318.42     -10.51      0.38  -3.258E-02   0.70 |
  |    O           6     -318.37      -7.62      0.30   4.373E-02   0.25 |
  |    O           7     -318.23       9.91      0.79  -5.266E-02   0.58 |
  |    O           8     -319.25      -5.88      0.80   4.514E-02   0.26 |
  |    O           9     -159.94     151.42      0.80   1.073E+00   0.69 |
  |    O          10      -20.38      38.83      0.70   3.912E+00   0.84 |
  |    O          11      -85.13      87.17      0.10  -3.177E+00   0.06 |
  |    O          12      -90.02      78.22      0.08  -3.205E+00   0.10 |
  |    O          13       -0.47      66.95      0.94   3.790E+00   0.95 |
  |    O          14      -85.64      81.95      0.11  -3.157E+00   0.08 |
  |    O          15      -85.55      85.80      0.14  -3.202E+00   0.09 |
  |    O          16      -18.01      37.44      0.72   3.932E+00   0.84 |
  |    O          17      -18.25      40.38      0.76   3.914E+00   0.83 |
  |    O          18      -83.72      87.05      0.34  -3.226E+00   0.09 |
  |    O          19       -7.42      69.12      0.66   3.806E+00   0.89 |
  |    O          20      -82.89      84.37      0.22  -3.115E+00   0.05 |
  |    O          21     -160.01     151.63      0.79   1.070E+00   0.69 |
  |    O          22      -20.30      38.79      0.70   3.912E+00   0.84 |
  |    O          23      -85.07      86.67      0.10  -3.178E+00   0.07 |
  |    O          24      -89.93      77.51      0.08  -3.208E+00   0.10 |
  |    O          25       -0.54      67.08      0.94   3.789E+00   0.95 |
  |    O          26      -85.62      81.26      0.11  -3.161E+00   0.08 |
  |    O          27      -85.18      84.93      0.14  -3.204E+00   0.09 |
  |    O          28      -17.94      37.40      0.72   3.933E+00   0.83 |
  |    O          29      -18.12      40.35      0.76   3.913E+00   0.83 |
  |    O          30      -83.94      88.10      0.34  -3.223E+00   0.09 |
  |    O          31       -7.49      69.10      0.66   3.807E+00   0.89 |
  |    O          32      -82.37      81.47      0.23  -3.120E+00   0.05 |
  |    O          33     -163.30     160.30      0.77   1.011E+00   0.89 |
  |    O          34      -18.74     -41.27      0.64   3.825E+00   0.92 |
  |    O          35      -84.22      84.06      0.18  -3.170E+00   0.07 |
  |    O          36      -82.35      83.60      0.14  -3.165E+00   0.07 |
  |    O          37      -21.46      38.35      0.92   3.857E+00   0.88 |
  |    O          38     -164.72     160.84      0.81   1.020E+00   0.89 |
  |    O          39      -18.68     -41.25      0.64   3.826E+00   0.92 |
  |    O          40     -163.28     160.50      0.77   1.017E+00   0.88 |
  |    O          41      -20.69      37.88      0.94   3.856E+00   0.87 |
  |    O          42      -91.14      91.43      0.21  -3.173E+00   0.11 |
  |    O          43      -84.26      83.90      0.19  -3.150E+00   0.05 |
  |    O          44     -160.69     158.75      0.78   1.072E+00   0.74 |
  |    O          45      -84.40      84.67      0.18  -3.167E+00   0.07 |
  |    O          46      -82.30      83.74      0.14  -3.165E+00   0.08 |
  |    O          47      -21.44      38.31      0.92   3.857E+00   0.88 |
  |    O          48     -164.72     161.39      0.81   1.022E+00   0.89 |
  |    O          49      -20.61      37.82      0.93   3.857E+00   0.87 |
  |    O          50      -91.26      92.53      0.21  -3.172E+00   0.11 |
  |    O          51      -86.59      85.71      0.06  -3.188E+00   0.06 |
  |    O          52     -161.86     160.97      0.82   1.081E+00   0.74 |
  |    O          53     -160.65     158.45      0.78   1.070E+00   0.74 |
  |    O          54      -84.72      85.85      0.19  -3.144E+00   0.05 |
  |    O          55     -162.00     160.25      0.82   1.076E+00   0.75 |
  |    O          56      -86.46      85.17      0.07  -3.189E+00   0.06 |
  |    Zr          1     1624.39    -123.53      0.13  -3.613E+01   0.07 |
  |    Zr          2     1623.94    -123.47      0.12  -3.614E+01   0.08 |
  |    Zr          3     1634.59    -125.93      0.18  -3.796E+01   0.11 |
  |    Zr          4     1629.18    -124.72      0.17  -3.704E+01   0.19 |
  |    Zr          5     1629.69    -126.44      0.22  -3.687E+01   0.03 |
  |    Zr          6     1629.26    -126.44      0.21  -3.692E+01   0.02 |
  |    Zr          7     1629.34    -124.72      0.17  -3.704E+01   0.21 |
  |    Sn          1     3234.86     -64.14      0.12   1.154E+02   0.07 |
  |    Sn          2     3238.91     -47.33      0.13   1.230E+02   0.07 |
  |    Sn          3     3246.05     -60.48      0.15   1.223E+02   0.17 |
  |    Sn          4     3246.02     -59.27      0.10   1.212E+02   0.11 |
  |    Sn          5     3245.98     -60.61      0.15   1.222E+02   0.17 |
  |    Sn          6     3257.14     -57.48      0.35   1.278E+02   0.20 |
  |    Sn          7     3246.29     -59.12      0.11   1.211E+02   0.12 |
  |    Sn          8     3257.95     -65.45      0.02   1.282E+02   0.25 |
  |    Sn          9     3238.94     -47.24      0.12   1.228E+02   0.07 |
  |    La          1     4655.01     630.87      0.00  -8.158E+01   0.03 |
  |    La          2     4654.97     630.99      0.00  -8.163E+01   0.03 |
  |    La          3     4617.40     516.41      0.06  -8.035E+01   0.11 |
  |    La          4     4745.71     881.34      0.04  -8.596E+01   0.07 |
  |    La          5     4601.38     522.69      0.09  -7.784E+01   0.11 |
  |    La          6     4701.63     759.62      0.04  -8.458E+01   0.10 |
  |    La          7     4609.18     541.33      0.07  -7.926E+01   0.22 |
  |    La          8     4607.96     509.17      0.08  -7.855E+01   0.08 |
  |    La          9     4648.79     630.14      0.01  -8.014E+01   0.02 |
  |    La         10     4701.55     758.17      0.04  -8.450E+01   0.10 |
  |    La         11     4608.02     509.35      0.08  -7.860E+01   0.08 |
  |    La         12     4610.28     524.31      0.08  -7.933E+01   0.13 |
  |    La         13     4648.95     629.56      0.01  -8.008E+01   0.02 |
  |    La         14     4608.66     539.80      0.07  -7.921E+01   0.22 |
  |    La         15     4550.06     391.14      0.06  -7.493E+01   0.14 |
  |    La         16     4601.40     522.72      0.09  -7.781E+01   0.11 |
  ========================================================================
 
 *********************** Forces ***********************
 *                                                    *
 *            Cartesian components (eV/A)             *
 * -------------------------------------------------- *
 *                   x            y            z      *
 *                                                    *
 * O         1     -0.00058     -0.00935      0.01467 *
 * O         2      0.00029     -0.01330     -0.00305 *
 * O         3      0.00490      0.00818     -0.01038 *
 * O         4     -0.00250      0.00158      0.01162 *
 * O         5     -0.00865      0.00225     -0.01504 *
 * O         6     -0.01186     -0.00269      0.00402 *
 * O         7      0.00763      0.00819      0.01153 *
 * O         8      0.00147     -0.00493     -0.01210 *
 * O         9     -0.01348      0.00923     -0.00280 *
 * O        10     -0.00175     -0.00184     -0.01339 *
 * O        11     -0.00734      0.01799     -0.00285 *
 * O        12      0.00481      0.00681      0.01201 *
 * O        13     -0.00574     -0.03416      0.00980 *
 * O        14     -0.01245      0.00475      0.00057 *
 * O        15      0.00811     -0.00351     -0.00653 *
 * O        16      0.00237     -0.00204     -0.01397 *
 * O        17     -0.01010      0.00276     -0.00675 *
 * O        18     -0.00733      0.00265     -0.01372 *
 * O        19     -0.00500      0.00445      0.02745 *
 * O        20     -0.00147     -0.00570     -0.00371 *
 * O        21      0.00430     -0.01589      0.00219 *
 * O        22     -0.00024     -0.00032      0.01478 *
 * O        23      0.01857     -0.00626      0.00100 *
 * O        24      0.00492      0.00733     -0.01070 *
 * O        25     -0.03556     -0.00397     -0.01214 *
 * O        26     -0.00010     -0.01646     -0.00234 *
 * O        27      0.00076      0.00638      0.00500 *
 * O        28     -0.00033      0.00684      0.01143 *
 * O        29      0.00861     -0.00252      0.00722 *
 * O        30     -0.00219      0.00165      0.01123 *
 * O        31      0.00369     -0.00619     -0.02623 *
 * O        32     -0.00960     -0.00621      0.00256 *
 * O        33     -0.00101      0.00530      0.00456 *
 * O        34      0.01788     -0.00223      0.00972 *
 * O        35      0.00429      0.00094      0.01199 *
 * O        36      0.00397     -0.00623     -0.01418 *
 * O        37      0.00051      0.00238     -0.00509 *
 * O        38      0.00974     -0.00825      0.00625 *
 * O        39     -0.00487      0.01813     -0.00813 *
 * O        40      0.01260     -0.00309     -0.00229 *
 * O        41     -0.00938     -0.00385     -0.00306 *
 * O        42     -0.01466     -0.00782     -0.00859 *
 * O        43      0.00995      0.00454     -0.00065 *
 * O        44      0.00297     -0.00049      0.00557 *
 * O        45      0.00149      0.00538     -0.00930 *
 * O        46     -0.00601      0.00146      0.01648 *
 * O        47      0.00119      0.00109      0.00522 *
 * O        48     -0.00476      0.01105     -0.00765 *
 * O        49      0.00006     -0.00870     -0.00008 *
 * O        50     -0.01071     -0.01540      0.00556 *
 * O        51      0.00242     -0.01558      0.00040 *
 * O        52      0.01578      0.00601     -0.00167 *
 * O        53      0.00141     -0.00270     -0.00704 *
 * O        54      0.00302      0.00879      0.00091 *
 * O        55     -0.00002      0.01163      0.00432 *
 * O        56     -0.01363      0.00269      0.00083 *
 * Zr        1      0.00501     -0.00599      0.00813 *
 * Zr        2     -0.00078      0.00861     -0.00429 *
 * Zr        3      0.00978      0.00700      0.00430 *
 * Zr        4      0.00695     -0.00350     -0.00918 *
 * Zr        5     -0.00877      0.00637     -0.00111 *
 * Zr        6     -0.00552     -0.00179      0.00489 *
 * Zr        7      0.00357      0.01000      0.01209 *
 * Sn        1      0.00504      0.00329      0.00053 *
 * Sn        2      0.02270      0.02040     -0.03556 *
 * Sn        3     -0.00853      0.02056     -0.01187 *
 * Sn        4     -0.00815     -0.00929      0.02373 *
 * Sn        5      0.01562     -0.01497      0.01438 *
 * Sn        6     -0.00980     -0.01051      0.00277 *
 * Sn        7     -0.00788     -0.01399     -0.02604 *
 * Sn        8     -0.00327     -0.00145     -0.00153 *
 * Sn        9      0.02354      0.02439      0.03269 *
 * La        1      0.00410      0.00605     -0.01900 *
 * La        2      0.00272      0.00043      0.01964 *
 * La        3     -0.00735     -0.00840      0.00057 *
 * La        4     -0.00661     -0.00227     -0.00041 *
 * La        5     -0.01091     -0.00917      0.02644 *
 * La        6      0.01488     -0.01368      0.00429 *
 * La        7     -0.00813      0.00310      0.00025 *
 * La        8      0.00784     -0.00611      0.01530 *
 * La        9      0.00922      0.00036     -0.02668 *
 * La       10     -0.00893      0.01724     -0.00555 *
 * La       11     -0.00178      0.00237     -0.01602 *
 * La       12      0.00586      0.00817     -0.00242 *
 * La       13     -0.00023      0.01496      0.02337 *
 * La       14      0.00497     -0.00691     -0.00102 *
 * La       15      0.00836      0.00667      0.00077 *
 * La       16     -0.00993     -0.01272     -0.02896 *
 *                                                    *
 ******************************************************
 
 ***************** Stress Tensor *****************
 *                                               *
 *          Cartesian components (GPa)           *
 * --------------------------------------------- *
 *             x             y             z     *
 *                                               *
 *  x      0.030762     -0.006712      0.010055  *
 *  y     -0.006712      0.032052     -0.010892  *
 *  z      0.010055     -0.010892      0.014767  *
 *                                               *
 *  Pressure:   -0.0259                          *
 *                                               *
 *************************************************
 
 Pseudo atomic calculation performed for O 2s2 2p4
 
 Converged in 39 iterations to a total energy of -432.6554 eV
 
 
 Pseudo atomic calculation performed for Zr 4s2 4p6 4d2 5s2
 
 Converged in 38 iterations to a total energy of -1285.4931 eV
 
 
 Pseudo atomic calculation performed for Sn 4d10 5s2 5p2
 
 Converged in 48 iterations to a total energy of -2044.5413 eV
 
 
 Pseudo atomic calculation performed for La 5s2 5p6 5d1 6s2
 
 Converged in 34 iterations to a total energy of -968.0373 eV
 
Charge spilling parameter for spin component 1 = 0.25%
 
     Atomic Populations (Mulliken)
     -----------------------------
Species   Ion     s      p      d      f     Total  Charge (e)
==============================================================
  O        1     1.87   5.00   0.00   0.00   6.87    -0.87
  O        2     1.87   5.00   0.00   0.00   6.87    -0.87
  O        3     1.87   5.00   0.00   0.00   6.87    -0.87
  O        4     1.87   5.00   0.00   0.00   6.87    -0.87
  O        5     1.87   5.00   0.00   0.00   6.87    -0.87
  O        6     1.87   5.00   0.00   0.00   6.87    -0.87
  O        7     1.87   5.00   0.00   0.00   6.87    -0.87
  O        8     1.87   5.00   0.00   0.00   6.87    -0.87
  O        9     1.86   4.95   0.00   0.00   6.80    -0.80
  O       10     1.88   5.03   0.00   0.00   6.91    -0.91
  O       11     1.87   4.99   0.00   0.00   6.86    -0.86
  O       12     1.87   4.99   0.00   0.00   6.86    -0.86
  O       13     1.88   5.02   0.00   0.00   6.91    -0.91
  O       14     1.87   4.99   0.00   0.00   6.86    -0.86
  O       15     1.87   4.99   0.00   0.00   6.86    -0.86
  O       16     1.88   5.03   0.00   0.00   6.91    -0.91
  O       17     1.88   5.03   0.00   0.00   6.91    -0.91
  O       18     1.87   4.99   0.00   0.00   6.86    -0.86
  O       19     1.88   5.02   0.00   0.00   6.91    -0.91
  O       20     1.87   4.99   0.00   0.00   6.86    -0.86
  O       21     1.86   4.95   0.00   0.00   6.80    -0.80
  O       22     1.88   5.03   0.00   0.00   6.91    -0.91
  O       23     1.87   4.99   0.00   0.00   6.86    -0.86
  O       24     1.87   4.99   0.00   0.00   6.86    -0.86
  O       25     1.88   5.02   0.00   0.00   6.91    -0.91
  O       26     1.87   4.99   0.00   0.00   6.86    -0.86
  O       27     1.87   4.99   0.00   0.00   6.86    -0.86
  O       28     1.88   5.03   0.00   0.00   6.91    -0.91
  O       29     1.88   5.03   0.00   0.00   6.91    -0.91
  O       30     1.87   4.99   0.00   0.00   6.86    -0.86
  O       31     1.88   5.02   0.00   0.00   6.91    -0.91
  O       32     1.87   4.99   0.00   0.00   6.86    -0.86
  O       33     1.86   4.95   0.00   0.00   6.80    -0.80
  O       34     1.88   5.03   0.00   0.00   6.91    -0.91
  O       35     1.87   4.99   0.00   0.00   6.86    -0.86
  O       36     1.87   4.99   0.00   0.00   6.86    -0.86
  O       37     1.88   5.03   0.00   0.00   6.91    -0.91
  O       38     1.86   4.95   0.00   0.00   6.80    -0.80
  O       39     1.88   5.03   0.00   0.00   6.91    -0.91
  O       40     1.86   4.95   0.00   0.00   6.80    -0.80
  O       41     1.88   5.03   0.00   0.00   6.91    -0.91
  O       42     1.87   4.99   0.00   0.00   6.86    -0.86
  O       43     1.87   4.99   0.00   0.00   6.86    -0.86
  O       44     1.86   4.95   0.00   0.00   6.80    -0.80
  O       45     1.87   4.99   0.00   0.00   6.86    -0.86
  O       46     1.87   4.99   0.00   0.00   6.86    -0.86
  O       47     1.88   5.03   0.00   0.00   6.91    -0.91
  O       48     1.86   4.95   0.00   0.00   6.80    -0.80
  O       49     1.88   5.03   0.00   0.00   6.91    -0.91
  O       50     1.87   4.99   0.00   0.00   6.86    -0.86
  O       51     1.87   4.99   0.00   0.00   6.86    -0.86
  O       52     1.86   4.95   0.00   0.00   6.80    -0.80
  O       53     1.86   4.95   0.00   0.00   6.80    -0.80
  O       54     1.87   4.99   0.00   0.00   6.86    -0.86
  O       55     1.86   4.95   0.00   0.00   6.80    -0.80
  O       56     1.87   4.99   0.00   0.00   6.86    -0.86
  Zr       1     2.37   6.49   1.92   0.00  10.78     1.22
  Zr       2     2.37   6.49   1.92   0.00  10.78     1.22
  Zr       3     2.37   6.47   1.93   0.00  10.76     1.24
  Zr       4     2.37   6.48   1.92   0.00  10.77     1.23
  Zr       5     2.37   6.48   1.92   0.00  10.77     1.23
  Zr       6     2.37   6.48   1.92   0.00  10.77     1.23
  Zr       7     2.37   6.48   1.92   0.00  10.77     1.23
  Sn       1     1.04   1.31  10.00   0.00  12.36     1.64
  Sn       2     1.04   1.31  10.00   0.00  12.35     1.65
  Sn       3     1.04   1.31  10.00   0.00  12.35     1.65
  Sn       4     1.04   1.31  10.00   0.00  12.36     1.64
  Sn       5     1.04   1.31  10.00   0.00  12.35     1.65
  Sn       6     1.05   1.31  10.00   0.00  12.36     1.64
  Sn       7     1.04   1.31  10.00   0.00  12.36     1.64
  Sn       8     1.05   1.31  10.00   0.00  12.35     1.65
  Sn       9     1.04   1.31  10.00   0.00  12.35     1.65
  La       1     2.07   6.17   1.19   0.00   9.44     1.56
  La       2     2.07   6.17   1.19   0.00   9.44     1.56
  La       3     2.08   6.19   1.19   0.00   9.46     1.54
  La       4     2.01   6.14   1.20   0.00   9.35     1.65
  La       5     2.08   6.18   1.19   0.00   9.45     1.55
  La       6     2.03   6.16   1.19   0.00   9.39     1.61
  La       7     2.09   6.18   1.19   0.00   9.46     1.54
  La       8     2.09   6.19   1.19   0.00   9.47     1.53
  La       9     2.06   6.17   1.19   0.00   9.42     1.58
  La      10     2.03   6.16   1.19   0.00   9.39     1.61
  La      11     2.09   6.19   1.19   0.00   9.47     1.53
  La      12     2.07   6.18   1.19   0.00   9.45     1.55
  La      13     2.06   6.17   1.19   0.00   9.42     1.58
  La      14     2.09   6.18   1.19   0.00   9.46     1.54
  La      15     2.11   6.20   1.19   0.00   9.50     1.50
  La      16     2.08   6.18   1.19   0.00   9.45     1.55
==============================================================
 
            Bond              Population      Length (A)
============================================================
         O 18 -- Sn 6              0.35        2.10013
         O 30 -- Sn 6              0.35        2.10044
         O 27 -- Sn 8              0.35        2.10110
         O 15 -- Sn 8              0.35        2.10114
         O 35 -- Sn 8              0.35        2.10250
         O 45 -- Sn 8              0.35        2.10301
         O 16 -- Sn 3              0.34        2.10430
         O 17 -- Sn 4              0.34        2.10431
         O 28 -- Sn 5              0.34        2.10464
         O 28 -- Sn 2              0.34        2.10488
         O 29 -- Sn 7              0.34        2.10501
         O 16 -- Sn 9              0.34        2.10522
         O 11 -- Sn 5              0.34        2.10564
         O 22 -- Sn 5              0.34        2.10580
         O 23 -- Sn 3              0.34        2.10590
         O 10 -- Sn 3              0.34        2.10594
         O 29 -- Sn 2              0.34        2.10632
         O 12 -- Sn 7              0.35        2.10704
         O 42 -- Sn 6              0.34        2.10716
         O 24 -- Sn 4              0.35        2.10720
         O 17 -- Sn 9              0.34        2.10724
         O 50 -- Sn 6              0.34        2.10738
         O 46 -- Sn 2              0.34        2.10759
         O 43 -- Sn 7              0.34        2.10762
         O 51 -- Sn 3              0.34        2.10774
         O 36 -- Sn 9              0.34        2.10787
         O 56 -- Sn 5              0.34        2.10790
         O 54 -- Sn 4              0.34        2.10797
         O 10 -- Sn 4              0.33        2.10997
         O 22 -- Sn 7              0.33        2.10999
         O 52 -- Zr 7              0.41        2.11011
         O 47 -- Sn 1              0.34        2.11028
         O 37 -- Sn 1              0.34        2.11029
         O 38 -- Zr 2              0.42        2.11032
         O 49 -- Sn 2              0.34        2.11040
         O 41 -- Sn 1              0.34        2.11052
         O 41 -- Sn 9              0.34        2.11071
         O 49 -- Sn 1              0.34        2.11084
         O 32 -- Sn 9              0.34        2.11094
         O 20 -- Sn 2              0.34        2.11119
         O 48 -- Zr 1              0.42        2.11174
         O 55 -- Zr 4              0.41        2.11182
         O 26 -- Sn 9              0.34        2.11187
         O 14 -- Sn 2              0.34        2.11195
         O 55 -- Zr 2              0.42        2.11208
         O 52 -- Zr 1              0.42        2.11226
         O 39 -- Sn 4              0.34        2.11227
         O 34 -- Sn 7              0.34        2.11237
         O 40 -- Zr 5              0.43        2.11246
         O 48 -- Zr 6              0.42        2.11251
         O 53 -- Zr 4              0.43        2.11256
         O 44 -- Zr 7              0.42        2.11317
         O 33 -- Zr 6              0.43        2.11337
         O 44 -- Zr 3              0.42        2.11365
         O 34 -- Sn 1              0.33        2.11382
         O 39 -- Sn 1              0.33        2.11399
         O 53 -- Zr 3              0.42        2.11445
         O 38 -- Zr 5              0.42        2.11532
         O 47 -- Sn 3              0.33        2.11545
         O 37 -- Sn 5              0.33        2.11548
         O 9  -- Zr 5              0.43        2.11570
         O 40 -- Zr 3              0.43        2.11597
         O 21 -- Zr 4              0.42        2.11620
         O 33 -- Zr 3              0.43        2.11629
         O 21 -- Zr 6              0.42        2.11654
         O 9  -- Zr 7              0.42        2.11726
         O 13 -- Sn 6              0.33        2.11738
         O 25 -- Sn 6              0.33        2.11777
         O 19 -- Sn 5              0.33        2.11790
         O 31 -- Sn 3              0.33        2.11795
         O 25 -- Sn 4              0.33        2.11837
         O 13 -- Sn 7              0.33        2.11844
         O 50 -- Zr 1              0.45        2.11923
         O 30 -- Zr 7              0.44        2.11972
         O 42 -- Zr 2              0.45        2.12014
         O 19 -- Sn 8              0.32        2.12039
         O 31 -- Sn 8              0.32        2.12044
         O 15 -- Zr 6              0.44        2.12088
         O 18 -- Zr 4              0.44        2.12101
         O 27 -- Zr 5              0.44        2.12140
         O 45 -- Zr 1              0.44        2.12185
         O 35 -- Zr 2              0.44        2.12240
         O 11 -- Zr 6              0.44        2.12440
         O 23 -- Zr 5              0.44        2.12471
         O 12 -- Zr 4              0.45        2.12595
         O 51 -- Zr 2              0.45        2.12643
         O 54 -- Zr 1              0.44        2.12654
         O 36 -- Zr 3              0.45        2.12683
         O 56 -- Zr 1              0.45        2.12687
         O 24 -- Zr 7              0.45        2.12687
         O 46 -- Zr 3              0.45        2.12693
         O 20 -- Zr 5              0.45        2.12696
         O 43 -- Zr 2              0.44        2.12857
         O 14 -- Zr 7              0.45        2.12951
         O 32 -- Zr 6              0.45        2.13010
         O 26 -- Zr 4              0.45        2.13054
         O 8  -- La 4              0.18        2.35629
         O 4  -- La 4              0.18        2.35629
         O 4  -- La 6              0.19        2.35725
         O 8  -- La 10             0.19        2.35729
         O 5  -- La 6              0.17        2.35771
         O 1  -- La 10             0.17        2.35779
         O 8  -- La 13             0.18        2.35852
         O 4  -- La 9              0.18        2.35859
         O 5  -- La 2              0.17        2.35866
         O 1  -- La 1              0.17        2.35887
         O 6  -- La 1              0.18        2.35893
         O 2  -- La 2              0.18        2.35895
         O 2  -- La 7              0.18        2.35984
         O 1  -- La 11             0.18        2.35990
         O 6  -- La 14             0.18        2.35991
         O 8  -- La 5              0.18        2.35994
         O 4  -- La 16             0.18        2.35999
         O 7  -- La 7              0.17        2.36000
         O 3  -- La 3              0.18        2.36001
         O 6  -- La 12             0.17        2.36010
         O 6  -- La 9              0.16        2.36011
         O 5  -- La 8              0.18        2.36013
         O 3  -- La 14             0.17        2.36013
         O 7  -- La 3              0.18        2.36019
         O 2  -- La 13             0.16        2.36031
         O 2  -- La 12             0.17        2.36038
         O 3  -- La 8              0.16        2.36119
         O 7  -- La 11             0.16        2.36119
         O 3  -- La 5              0.15        2.36126
         O 7  -- La 16             0.15        2.36146
         O 1  -- La 15             0.16        2.36205
         O 5  -- La 15             0.16        2.36209
         O 17 -- La 15             0.22        2.66624
         O 29 -- La 15             0.22        2.66641
         O 21 -- La 8              0.14        2.66730
         O 9  -- La 11             0.14        2.66769
         O 33 -- La 13             0.13        2.66778
         O 40 -- La 9              0.13        2.66809
         O 38 -- La 4              0.11        2.66809
         O 48 -- La 4              0.11        2.66845
         O 55 -- La 1              0.13        2.66979
         O 10 -- La 13             0.23        2.66988
         O 22 -- La 9              0.23        2.67003
         O 52 -- La 2              0.13        2.67026
         O 16 -- La 5              0.23        2.67068
         O 42 -- La 16             0.18        2.67086
         O 28 -- La 16             0.23        2.67101
         O 34 -- La 11             0.24        2.67107
         O 41 -- La 2              0.24        2.67123
         O 50 -- La 5              0.18        2.67124
         O 39 -- La 8              0.24        2.67134
         O 53 -- La 9              0.12        2.67148
         O 49 -- La 1              0.24        2.67149
         O 35 -- La 16             0.17        2.67165
         O 53 -- La 1              0.14        2.67174
         O 44 -- La 13             0.12        2.67175
         O 44 -- La 2              0.14        2.67203
         O 45 -- La 5              0.17        2.67215
         O 15 -- La 13             0.17        2.67259
         O 25 -- La 15             0.24        2.67262
         O 13 -- La 15             0.24        2.67269
         O 27 -- La 9              0.17        2.67301
         O 10 -- La 7              0.23        2.67312
         O 55 -- La 10             0.12        2.67323
         O 37 -- La 2              0.24        2.67325
         O 47 -- La 11             0.24        2.67339
         O 22 -- La 14             0.23        2.67343
         O 28 -- La 7              0.22        2.67358
         O 37 -- La 8              0.24        2.67367
         O 31 -- La 13             0.24        2.67371
         O 16 -- La 14             0.22        2.67380
         O 52 -- La 6              0.12        2.67387
         O 47 -- La 1              0.24        2.67389
         O 29 -- La 6              0.22        2.67393
         O 41 -- La 12             0.23        2.67401
         O 17 -- La 10             0.22        2.67401
         O 38 -- La 10             0.12        2.67406
         O 19 -- La 9              0.24        2.67408
         O 48 -- La 6              0.12        2.67414
         O 26 -- La 5              0.18        2.67421
         O 12 -- La 9              0.17        2.67422
         O 49 -- La 12             0.23        2.67429
         O 24 -- La 13             0.17        2.67437
         O 36 -- La 15             0.18        2.67462
         O 15 -- La 12             0.18        2.67464
         O 46 -- La 15             0.18        2.67475
         O 14 -- La 16             0.18        2.67480
         O 33 -- La 4              0.11        2.67483
         O 18 -- La 5              0.17        2.67489
         O 19 -- La 16             0.24        2.67492
         O 31 -- La 5              0.24        2.67499
         O 40 -- La 4              0.11        2.67500
         O 27 -- La 12             0.18        2.67507
         O 30 -- La 16             0.17        2.67517
         O 21 -- La 6              0.12        2.67524
         O 18 -- La 8              0.19        2.67537
         O 30 -- La 11             0.19        2.67552
         O 42 -- La 4              0.17        2.67557
         O 56 -- La 7              0.19        2.67578
         O 9  -- La 10             0.12        2.67597
         O 51 -- La 14             0.19        2.67598
         O 50 -- La 4              0.17        2.67614
         O 54 -- La 7              0.18        2.67632
         O 11 -- La 14             0.19        2.67644
         O 23 -- La 7              0.19        2.67660
         O 43 -- La 14             0.18        2.67665
         O 12 -- La 6              0.18        2.67693
         O 34 -- La 3              0.24        2.67709
         O 24 -- La 10             0.18        2.67725
         O 39 -- La 3              0.24        2.67733
         O 13 -- La 11             0.24        2.67756
         O 25 -- La 8              0.24        2.67780
         O 11 -- La 8              0.18        2.67801
         O 32 -- La 14             0.19        2.67820
         O 51 -- La 1              0.19        2.67823
         O 23 -- La 11             0.18        2.67825
         O 56 -- La 2              0.19        2.67828
         O 20 -- La 7              0.19        2.67831
         O 35 -- La 3              0.19        2.67838
         O 32 -- La 12             0.19        2.67897
         O 45 -- La 3              0.19        2.67899
         O 43 -- La 3              0.20        2.67911
         O 54 -- La 3              0.20        2.68011
         O 20 -- La 12             0.19        2.68019
         O 26 -- La 10             0.18        2.68087
         O 14 -- La 6              0.18        2.68121
         O 36 -- La 2              0.19        2.68170
         O 46 -- La 1              0.19        2.68179
         O 10 -- O 24             -0.06        2.79514
         O 12 -- O 22             -0.06        2.79516
         O 18 -- O 50             -0.06        2.79545
         O 30 -- O 42             -0.06        2.79571
         O 12 -- O 29             -0.06        2.79629
         O 17 -- O 24             -0.06        2.79647
         O 37 -- O 41             -0.05        2.79683
         O 47 -- O 49             -0.05        2.79718
         O 14 -- O 28             -0.06        2.79725
         O 16 -- O 26             -0.06        2.79737
         O 16 -- O 51             -0.06        2.79762
         O 29 -- O 46             -0.06        2.79782
         O 15 -- O 27             -0.06        2.79785
         O 28 -- O 56             -0.06        2.79794
         O 41 -- O 49             -0.05        2.79815
         O 17 -- O 36             -0.06        2.79820
         O 11 -- O 22             -0.06        2.79822
         O 34 -- O 47             -0.05        2.79822
         O 10 -- O 23             -0.06        2.79831
         O 37 -- O 39             -0.05        2.79848
         O 42 -- O 50             -0.06        2.79928
         O 19 -- O 22             -0.05        2.79929
         O 10 -- O 31             -0.05        2.79948
         O 16 -- O 31             -0.05        2.79992
         O 17 -- O 25             -0.05        2.80009
         O 13 -- O 29             -0.05        2.80011
         O 19 -- O 28             -0.05        2.80017
         O 10 -- O 54             -0.06        2.80326
         O 47 -- O 51             -0.06        2.80374
         O 22 -- O 43             -0.06        2.80386
         O 37 -- O 56             -0.06        2.80408
         O 17 -- O 26             -0.06        2.80468
         O 14 -- O 29             -0.06        2.80468
         O 20 -- O 28             -0.06        2.80475
         O 15 -- O 31             -0.06        2.80479
         O 35 -- O 45             -0.06        2.80494
         O 11 -- O 37             -0.06        2.80502
         O 23 -- O 47             -0.06        2.80515
         O 19 -- O 35             -0.06        2.80529
         O 19 -- O 27             -0.06        2.80530
         O 31 -- O 45             -0.06        2.80536
         O 46 -- O 49             -0.06        2.80539
         O 20 -- O 49             -0.06        2.80542
         O 36 -- O 41             -0.06        2.80577
         O 16 -- O 32             -0.06        2.80581
         O 32 -- O 41             -0.06        2.80628
         O 39 -- O 54             -0.06        2.80648
         O 34 -- O 43             -0.06        2.80703
         O 34 -- O 39             -0.05        2.80838
         O 18 -- O 25             -0.05        2.80905
         O 13 -- O 30             -0.05        2.80906
         O 38 -- O 40             -0.03        2.80910
         O 25 -- O 39             -0.05        2.80989
         O 33 -- O 48             -0.03        2.80996
         O 13 -- O 34             -0.05        2.80997
         O 48 -- O 52             -0.03        2.81142
         O 38 -- O 55             -0.03        2.81220
         O 40 -- O 53             -0.03        2.81262
         O 33 -- O 44             -0.03        2.81293
         O 13 -- O 25             -0.05        2.81327
         O 48 -- O 50             -0.03        2.81390
         O 44 -- O 52             -0.03        2.81397
         O 53 -- O 55             -0.03        2.81461
         O 38 -- O 42             -0.03        2.81474
         O 33 -- O 40             -0.03        2.81644
         O 9  -- O 38             -0.03        2.81798
         O 27 -- O 40             -0.03        2.81828
         O 21 -- O 48             -0.03        2.81849
         O 15 -- O 33             -0.03        2.81858
         O 9  -- O 30             -0.03        2.82293
         O 18 -- O 21             -0.03        2.82342
         O 24 -- O 44             -0.03        2.82375
         O 12 -- O 53             -0.03        2.82443
         O 45 -- O 50             -0.03        2.82476
         O 35 -- O 42             -0.03        2.82490
         O 52 -- O 56             -0.03        2.82606
         O 51 -- O 55             -0.03        2.82626
         O 9  -- O 24             -0.03        2.82736
         O 12 -- O 21             -0.03        2.82748
         O 26 -- O 55             -0.03        2.82831
         O 14 -- O 52             -0.03        2.82851
         O 11 -- O 21             -0.03        2.82860
         O 9  -- O 23             -0.03        2.82870
         O 36 -- O 44             -0.03        2.83117
         O 46 -- O 53             -0.03        2.83118
         O 18 -- O 26             -0.03        2.83464
         O 14 -- O 30             -0.03        2.83472
         O 54 -- O 56             -0.03        2.83703
         O 43 -- O 51             -0.03        2.83704
         O 15 -- O 32             -0.03        2.83838
         O 20 -- O 27             -0.03        2.83862
         O 11 -- O 32             -0.03        2.83941
         O 36 -- O 46             -0.03        2.83962
         O 35 -- O 43             -0.03        2.83970
         O 20 -- O 23             -0.03        2.83973
         O 45 -- O 54             -0.03        2.83995
============================================================
 
Initialisation time =     27.33 s
Calculation time    =   2721.93 s
Finalisation time   =      0.12 s
Total time          =   2749.38 s
Peak Memory Use     = 3647144 kB
  
Overall parallel efficiency rating: Good (74%)                                  
  
Data was distributed by:-
G-vector (64-way); efficiency rating: Good (75%)                                
k-point (14-way); efficiency rating: Excellent (99%)                            
