 +-------------------------------------------------+
 |                                                 |
 |      CCC   AA    SSS  TTTTT  EEEEE  PPPP        |
 |     C     A  A  S       T    E      P   P       |
 |     C     AAAA   SS     T    EEE    PPPP        |
 |     C     A  A     S    T    E      P           |
 |      CCC  A  A  SSS     T    EEEEE  P           |
 |                                                 |
 +-------------------------------------------------+
 |                                                 |
 | Welcome to Academic Release CASTEP version 16.1 |          
 | Ab Initio Total Energy Program                  |
 |                                                 |
 | Authors:                                        |
 | M. Segall, M. Probert, C. Pickard, P. Hasnip,   |
 | S. Clark, K. Refson, J. R. Yates, M. Payne      |
 |                                                 |
 | Contributors:                                   |
 | P. Lindan, P. Haynes, J. White, V. Milman,      |
 | N. Govind, M. Gibson, P. Tulip, V. Cocula,      |
 | B. Montanari, D. Quigley, M. Glover,            |
 | L. Bernasconi, A. Perlov, M. Plummer,           |
 | E. McNellis, J. Meyer, J. Gale, D. Jochym       |
 | J. Aarons, B. Walker, R. Gillen, D. Jones       |
 | T. Green, I. J. Bush, C. J. Armstrong,          |
 | E. J. Higgins, E. L. Brown, M. S. McFly         |
 |                                                 |
 | Copyright (c) 2000 - 2015                       |
 |                                                 |
 |     Distributed under the terms of an           |
 |     Agreement between the United Kingdom        |
 |     Car-Parrinello (UKCP) Consortium,           |
 |     Daresbury Laboratory and Accelrys, Inc.     |
 |                                                 |
 | Please cite                                     |
 |                                                 |
 |     "First principles methods using CASTEP"     |
 |                                                 |
 |         Zeitschrift fuer Kristallographie       |
 |           220(5-6) pp. 567-570 (2005)           |
 |                                                 |
 | S. J. Clark, M. D. Segall, C. J. Pickard,       |
 | P. J. Hasnip, M. J. Probert, K. Refson,         |
 | M. C. Payne                                     |
 |                                                 |
 |       in all publications arising from          |
 |              your use of CASTEP                 |
 |                                                 |
 +-------------------------------------------------+
 
 
 Compiled for linux_x86_64_cray-XT on Tue, 22 Mar 2022 15:42:52 +0000
 from code version b833c1ffcd7d+  Fri, 13 Jun 2014 17:24:31 +0100
 Compiler: Cray Fortran 11.0.4; Optimisation: intermediate
 MATHLIBS: LibSci (LAPACK version 3.6.1)
 FFT Lib : default
 Fundamental constants values: CODATA 2010
 
 Run started: Tue, 29 Mar 2022 13:29:37 -0100
 +-------------------------------------------------+
 |                                                 |
 |           N   N    M   M    RRRR                |
 |           NN  N    MM MM    R   R               |
 |           N N N    M M M    RRRR                |
 |           N  NN    M   M    R  R                |
 |           N   N    M   M    R   R               |
 |                                                 |
 +-------------------------------------------------+
 |                                                 |
 | Welcome to Materials Studio CASTEP-NMR          |
 |                                                 |
 | Authors:                                        |
 | J.R. Yates, C.J. Pickard, F. Mauri              |
 |                                                 |
 | Contributors:                                   |
 | T.F.G. Green, S.A. Joyce                        |
 |                                                 |
 | Copyright (c) 2004 - 2015                       |
 |                                                 |
 | Please cite the appropriate publications in all |
 | work arising from your use of CASTEP NMR.       |
 |                                                 |
 | For NMR Shielding Tensors cite:                 |
 |    "All-electron magnetic response with         |
 |    pseudopotentials: NMR chemical shifts",      |
 |    C. J. Pickard, F. Mauri;                     |
 |    Physical Review B63 245101 (2001), and       |
 |                                                 |
 |    "Calculation of NMR Chemical Shifts          |
 |    for extended systems using                   |
 |    Ultrasoft Pseudopotentials",                 |
 |    J. R. Yates, C. J. Pickard and F. Mauri      |
 |    Physical Review B76 024401 (2007)            |
 |                                                 |
 | For Electric Field Gradients cite:              |
 |   "Accurate First Principles Prediction of 17O  |
 |    NMR Parameters in SiO2: Assignment of the    |
 |    Zeolite Ferrierite Spectrum"                 |
 |    M. Profeta, F. Mauri and C. J. Pickard       |
 |    J. Amer. Chem. Soc. 125 541 (2003)           |
 |                                                 |
 | For Spin-Spin (J) Couplings cite:               |
 |   "A first principles theory of NMR J-coupling  |
 |   in solid-state systems"                       |
 |   S.A. Joyce, J.R. Yates, C.J. Pickard, F. Mauri|
 |   J. Chem. Phys. 127 204107 (2007)              |
 |                                                 |
 |   "Relativistic NMR J-coupling with ultrasoft   |
 |   pseudopotentials and the zeroth-order regular |
 |   approximation"                                |
 |   T.F.G. Green and J.R. Yates                   |
 |   J. Chem. Phys. 140 234106 (2014)              |
 |                                                 |
 +-------------------------------------------------+
 
 
 Atomic calculation performed for O: 1s2 2s2 2p4
 
 Converged in 44 iterations to an ae energy of -2040.855 eV
 
 
 Atomic calculation performed for O: 1s2 2s2 2p4
 
 Exceeded max iterations: converged to 0.000000062 eV
 
   ============================================================                
   | Pseudopotential Report - Date of generation 29-03-2022   |                
   ------------------------------------------------------------                
   | Element: O Ionic charge:  6.00 Level of theory: PBE      |                
   | Atomic Solver: ZORA (scalar)                             |                
   |                                                          |                
   |               Reference Electronic Structure             |                
   |         Orbital         Occupation         Energy        |                
   |            2s              2.000           -0.881        |                
   |            2p              4.000           -0.332        |                
   |                                                          |                
   |                 Pseudopotential Definition               |                
   |        Beta     l      e      Rc     scheme   norm       |                
   |          1      0   -0.881   1.100     qc      0         |                
   |          2      0    0.250   1.100     qc      0         |                
   |          3      1   -0.332   1.100     qc      0         |                
   |          4      1    0.250   1.100     qc      0         |                
   |         loc     2    0.000   1.100     pn      0         |                
   |                                                          |                
   | Augmentation charge Rinner = 0.769                       |                
   | Partial core correction Rc = 0.769                       |                
   ------------------------------------------------------------                
   | "2|1.1|15|18|20|20:21(qc=7)"                             |                
   ------------------------------------------------------------                
   |      Author: Chris J. Pickard, Cambridge University      |                
   ============================================================                
 
 Atomic calculation performed for Zr: 1s2 2s2 2p6 3s2 3p6 3d10 4s2 4p6 4d2 5s2
 
 Converged in 52 iterations to an ae energy of -97719.888 eV
 
 
 Atomic calculation performed for Zr: 1s2 2s2 2p6 3s2 3p6 3d10 4s2 4p6 4d2 5s2
 
 Exceeded max iterations: converged to 0.000000936 eV
 
 Warning: ion_atom_descreen_psp: negative charge density encountered
   ============================================================                
   | Pseudopotential Report - Date of generation 29-03-2022   |                
   ------------------------------------------------------------                
   | Element: Zr Ionic charge: 12.00 Level of theory: PBE     |                
   | Atomic Solver: ZORA (scalar)                             |                
   |                                                          |                
   |               Reference Electronic Structure             |                
   |         Orbital         Occupation         Energy        |                
   |            4s              2.000           -2.003        |                
   |            4p              6.000           -1.193        |                
   |            5s              2.000           -0.163        |                
   |            4d              2.000           -0.132        |                
   |                                                          |                
   |                 Pseudopotential Definition               |                
   |        Beta     l      e      Rc     scheme   norm       |                
   |          1      0   -2.003   2.105     qc      0         |                
   |          2      0   -0.163   2.105     qc      0         |                
   |          3      0    0.250   2.105     qc      0         |                
   |          4      1   -1.193   2.105     qc      0         |                
   |          5      1    0.250   2.105     qc      0         |                
   |          6      2   -0.132   2.105     qc      0         |                
   |          7      2    0.250   2.105     qc      0         |                
   |         loc     3    0.000   2.105     pn      0         |                
   |                                                          |                
   | Augmentation charge Rinner = 1.471                       |                
   | Partial core correction Rc = 1.471                       |                
   ------------------------------------------------------------                
   | "3|2.1|7|8|9|40U:50:41:42"                               |                
   ------------------------------------------------------------                
   |      Author: Chris J. Pickard, Cambridge University      |                
   ============================================================                
 
 Atomic calculation performed for Sn:
 1s2 2s2 2p6 3s2 3p6 3d10 4s2 4p6 4d10 5s2 5p2
 
 Converged in 58 iterations to an ae energy of -167539.320 eV
 
 
 Atomic calculation performed for Sn:
 1s2 2s2 2p6 3s2 3p6 3d10 4s2 4p6 4d10 5s2 5p2
 
 Exceeded max iterations: converged to -0.000000491 eV
 
   ============================================================                
   | Pseudopotential Report - Date of generation 29-03-2022   |                
   ------------------------------------------------------------                
   | Element: Sn Ionic charge: 14.00 Level of theory: PBE     |                
   | Atomic Solver: ZORA (scalar)                             |                
   |                                                          |                
   |               Reference Electronic Structure             |                
   |         Orbital         Occupation         Energy        |                
   |            4d             10.000           -0.950        |                
   |            5s              2.000           -0.388        |                
   |            5p              2.000           -0.136        |                
   |                                                          |                
   |                 Pseudopotential Definition               |                
   |        Beta     l      e      Rc     scheme   norm       |                
   |          1      0   -0.388   2.199     qc      0         |                
   |          2      0    0.250   2.199     qc      0         |                
   |          3      1   -0.136   2.199     qc      0         |                
   |          4      1    0.250   2.199     qc      0         |                
   |          5      2   -0.950   2.199     qc      0         |                
   |          6      2    0.250   2.199     qc      0         |                
   |         loc     3    0.000   2.199     pn      0         |                
   |                                                          |                
   | Augmentation charge Rinner = 1.537                       |                
   | Partial core correction Rc = 1.537                       |                
   ------------------------------------------------------------                
   | "3|2.2|7|8|9|50:51:42"                                   |                
   ------------------------------------------------------------                
   |      Author: Chris J. Pickard, Cambridge University      |                
   ============================================================                
 
 Atomic calculation performed for La:
 1s2 2s2 2p6 3s2 3p6 3d10 4s2 4p6 4d10 5s2 5p6 5d1 6s2
 
 Converged in 55 iterations to an ae energy of -230121.495 eV
 
 
 Atomic calculation performed for La:
 1s2 2s2 2p6 3s2 3p6 3d10 4s2 4p6 4d10 5s2 5p6 5d1 6s2
 
 Exceeded max iterations: converged to 0.000001134 eV
 
 Warning: ion_atom_descreen_psp: negative charge density encountered
   ============================================================                
   | Pseudopotential Report - Date of generation 29-03-2022   |                
   ------------------------------------------------------------                
   | Element: La Ionic charge: 11.00 Level of theory: PBE     |                
   | Atomic Solver: ZORA (scalar)                             |                
   |                                                          |                
   |               Reference Electronic Structure             |                
   |         Orbital         Occupation         Energy        |                
   |            5s              2.000           -1.430        |                
   |            5p              6.000           -0.823        |                
   |            6s              2.000           -0.135        |                
   |            5d              1.000           -0.114        |                
   |                                                          |                
   |                 Pseudopotential Definition               |                
   |        Beta     l      e      Rc     scheme   norm       |                
   |          1      0   -1.430   2.298     qc      0         |                
   |          2      0   -0.135   2.298     qc      0         |                
   |          3      0    0.250   2.298     qc      0         |                
   |          4      1   -0.823   2.298     qc      0         |                
   |          5      1    0.250   2.298     qc      0         |                
   |          6      2   -0.114   2.298     qc      0         |                
   |          7      2    0.250   2.298     qc      0         |                
   |         loc     2    0.000   2.298     pn      0         |                
   |                                                          |                
   | Augmentation charge Rinner = 1.606                       |                
   | Partial core correction Rc = 1.606                       |                
   ------------------------------------------------------------                
   | "2|2.3|5|6|7|50U:60:51:52(qc=4.5)"                       |                
   ------------------------------------------------------------                
   |      Author: Chris J. Pickard, Cambridge University      |                
   ============================================================                
 
 Pseudo atomic calculation performed for O 2s2 2p4
 
 Converged in 39 iterations to a total energy of -432.6554 eV
 
 
 Pseudo atomic calculation performed for Zr 4s2 4p6 4d2 5s2
 
 Converged in 38 iterations to a total energy of -1285.4931 eV
 
 
 Pseudo atomic calculation performed for Sn 4d10 5s2 5p2
 
 Converged in 48 iterations to a total energy of -2044.5413 eV
 
 
 Pseudo atomic calculation performed for La 5s2 5p6 5d1 6s2
 
 Converged in 34 iterations to a total energy of -968.0373 eV
 
 Calculation parallelised over 896 processes.
 Data is distributed by G-vector(64-way) and k-point(14-way)

 ************************************ Title ************************************
 nmr testing

 ***************************** General Parameters ******************************
  
 output verbosity                               : normal  (1)
 write checkpoint data to                       : 82.check
 type of calculation                            : Magnetic Resonance
 stress calculation                             : on
 density difference calculation                 : off
 electron localisation func (ELF) calculation   : off
 Hirshfeld analysis                             : off
 unlimited duration calculation
 timing information                             : on
 memory usage estimate                          : on
 write final potential to formatted file        : off
 write final density to formatted file          : off
 write BibTeX reference list                    : off
 write OTFG pseudopotential files               : on
 checkpoint writing                             : off
  
 output         length unit                     : A
 output           mass unit                     : amu
 output           time unit                     : ps
 output         charge unit                     : e
 output           spin unit                     : hbar/2
 output         energy unit                     : eV
 output          force unit                     : eV/A
 output       velocity unit                     : A/ps
 output       pressure unit                     : GPa
 output     inv_length unit                     : 1/A
 output      frequency unit                     : cm-1
 output force constant unit                     : eV/A**2
 output         volume unit                     : A**3
 output   IR intensity unit                     : (D/A)**2/amu
 output         dipole unit                     : D
 output         efield unit                     : eV/A/e
 output        entropy unit                     : J/mol/K
  
 wavefunctions paging                           : none
 random number generator seed                   : randomised (132937767)
 data distribution                              : optimal for this architecture
 optimization strategy                          : maximize speed(+++)

 *********************** Exchange-Correlation Parameters ***********************
  
 using functional                               : Perdew Burke Ernzerhof
 relativistic treatment                         : ZORA
 DFT+D: Semi-empirical dispersion correction    : off

 ************************* Pseudopotential Parameters **************************
  
 pseudopotential representation                 : reciprocal space
 <beta|phi> representation                      : reciprocal space
 spin-orbit coupling                            : off

 **************************** Basis Set Parameters *****************************
  
 plane wave basis set cut-off                   :   816.3416   eV
 size of standard grid                          :     1.7500
 size of   fine   gmax                          :    25.6161   1/A
 finite basis set correction                    : automatic
 number of sample energies                      :          3
           sample  spacing                      :     5.0000   eV

 **************************** Electronic Parameters ****************************
  
 number of  electrons                           :  722.0    
 net charge of system                           :  0.000    
 treating system as non-spin-polarized
 number of bands                                :        433

 ********************* Electronic Minimization Parameters **********************
  
 Method: Treating system as metallic with density mixing treatment of electrons,
         and number of  SD  steps               :          1
         and number of  CG  steps               :          4
  
 total energy / atom convergence tol.           : 0.1000E-08   eV
 eigen-energy convergence tolerance             : 0.2438E-09   eV
 max force / atom convergence tol.              : ignored
 convergence tolerance window                   :          3   cycles
 max. number of SCF cycles                      :        250
 number of fixed-spin iterations                :         10
 smearing scheme                                : Gaussian
 smearing width                                 : 0.2000       eV
 Fermi energy convergence tolerance             : 0.2721E-13   eV
 periodic dipole correction                     : NONE

 ************************** Density Mixing Parameters **************************
  
 density-mixing scheme                          : Broyden
 max. length of mixing history                  :         20
 charge density mixing amplitude                : 0.8000    
 cut-off energy for mixing                      :  816.3       eV

 *********************** Population Analysis Parameters ************************
  
 Population analysis with cutoff                :  3.000       A

 ************************ Magnetic Resonance Parameters ************************
  
 Magnetic Resonance Property                    : Chemical Shielding + EFG
 Position Operator Method                       : crystal
 max. number of MagRes CG steps                 :        250
 convergence tolerance window                   :          2   cycles
 energy convergence tolerance                   : 0.1000E-11   eV
 band convergence tolerance                     : 0.1000E-08   eV

 *******************************************************************************
  
 
                           -------------------------------
                                      Unit Cell
                           -------------------------------
        Real Lattice(A)                      Reciprocal Lattice(1/A)
  10.9012555   0.0036156   0.0036194        0.5763728  -0.0001913  -0.0001915
   0.0036154  10.8955017  -0.0035098       -0.0001913   0.5766771   0.0001858
   0.0036192  -0.0035098  10.8955332       -0.0001915   0.0001858   0.5766755
 
                       Lattice parameters(A)       Cell Angles
                    a =   10.901257          alpha =   90.036908
                    b =   10.895503          beta  =   89.961951
                    c =   10.895534          gamma =   89.961991
 
                       Current cell volume = 1294.112698       A**3
 
                           -------------------------------
                                     Cell Contents
                           -------------------------------
                         Total number of ions in cell =   88
                      Total number of species in cell =    4
                        Max number of any one species =   56
 
            xxxxxxxxxxxxxxxxxxxxxxxxxxxxxxxxxxxxxxxxxxxxxxxxxxxxxxxxxxxx
            x  Element    Atom        Fractional coordinates of atoms  x
            x            Number           u          v          w      x
            x----------------------------------------------------------x
            x  O            1         0.125302   0.124695   0.124695   x 
            x  O            2         0.624820   0.124853   0.625192   x 
            x  O            3         0.125122   0.625219   0.625219   x 
            x  O            4         0.624820   0.625192   0.124853   x 
            x  O            5         0.874698   0.375305   0.375305   x 
            x  O            6         0.874878   0.874781   0.874781   x 
            x  O            7         0.375180   0.375147   0.874808   x 
            x  O            8         0.375180   0.874808   0.375147   x 
            x  O            9         0.420532   0.126155   0.126155   x 
            x  O           10         0.329769   0.125645   0.623673   x 
            x  O           11         0.829743   0.625139   0.625139   x 
            x  O           12         0.919545   0.625157   0.124719   x 
            x  O           13         0.125219   0.419702   0.124777   x 
            x  O           14         0.624846   0.330492   0.124755   x 
            x  O           15         0.625372   0.829605   0.624668   x 
            x  O           16         0.124246   0.920175   0.623630   x 
            x  O           17         0.125219   0.124777   0.419702   x 
            x  O           18         0.125236   0.625179   0.330475   x 
            x  O           19         0.625372   0.624668   0.829605   x 
            x  O           20         0.626298   0.125647   0.920205   x 
            x  O           21         0.876176   0.670565   0.373848   x 
            x  O           22         0.875754   0.579825   0.876370   x 
            x  O           23         0.375005   0.079669   0.874820   x 
            x  O           24         0.375154   0.169507   0.375245   x 
            x  O           25         0.169649   0.375208   0.375208   x 
            x  O           26         0.080455   0.874843   0.375281   x 
            x  O           27         0.579591   0.875306   0.875306   x 
            x  O           28         0.670231   0.374355   0.876327   x 
            x  O           29         0.874781   0.375223   0.080298   x 
            x  O           30         0.375154   0.375245   0.169508   x 
            x  O           31         0.374628   0.875332   0.670395   x 
            x  O           32         0.875754   0.876370   0.579825   x 
            x  O           33         0.670231   0.876327   0.374355   x 
            x  O           34         0.080455   0.375281   0.874843   x 
            x  O           35         0.374628   0.670395   0.875332   x 
            x  O           36         0.874781   0.080298   0.375223   x 
            x  O           37         0.876176   0.373848   0.670565   x 
            x  O           38         0.375005   0.874820   0.079669   x 
            x  O           39         0.125236   0.330476   0.625179   x 
            x  O           40         0.626298   0.920205   0.125647   x 
            x  O           41         0.919546   0.124719   0.625157   x 
            x  O           42         0.329769   0.623673   0.125645   x 
            x  O           43         0.124246   0.623630   0.920175   x 
            x  O           44         0.624846   0.124755   0.330492   x 
            x  O           45         0.420409   0.624694   0.624694   x 
            x  O           46         0.830351   0.124792   0.124792   x 
            x  O           47         0.123824   0.126152   0.829435   x 
            x  O           48         0.624995   0.625180   0.420331   x 
            x  O           49         0.874764   0.169524   0.874821   x 
            x  O           50         0.373702   0.579795   0.374353   x 
            x  O           51         0.170257   0.874861   0.874861   x 
            x  O           52         0.579468   0.373845   0.373845   x 
            x  O           53         0.874764   0.874821   0.169525   x 
            x  O           54         0.373702   0.374353   0.579795   x 
            x  O           55         0.123824   0.829435   0.126152   x 
            x  O           56         0.624995   0.420331   0.625180   x 
            x  Zr           1         0.499394   0.499495   0.499495   x 
            x  Zr           2         0.248837   0.748494   0.000614   x 
            x  Zr           3         0.248837   0.000614   0.748494   x 
            x  Zr           4         0.500606   0.000505   0.000505   x 
            x  Zr           5         0.751163   0.499386   0.751506   x 
            x  Zr           6         0.751163   0.751506   0.499386   x 
            x  Zr           7         0.500000   0.750000   0.750000   x 
            x  Sn           1         0.750032   0.000096   0.249935   x 
            x  Sn           2         0.000000   0.250000   0.750000   x 
            x  Sn           3         0.750032   0.249935   0.000096   x 
            x  Sn           4         0.000000   0.750000   0.250000   x 
            x  Sn           5         0.249968   0.250065   0.499904   x 
            x  Sn           6         0.249968   0.499904   0.250065   x 
            x  Sn           7        -0.000000   0.499810   0.000189   x 
            x  Sn           8         0.500000   0.250000   0.250000   x 
            x  Sn           9         0.000000   0.000190   0.499810   x 
            x  La           1         0.000182  -0.000370  -0.000370   x 
            x  La           2         0.749577   0.250213   0.500389   x 
            x  La           3         0.250310   0.500189   0.749920   x 
            x  La           4         0.500000   0.750000   0.250000   x 
            x  La           5         0.250310   0.749920   0.500189   x 
            x  La           6         0.749577   0.500389   0.250213   x 
            x  La           7         0.500000   0.250000   0.750000   x 
            x  La           8        -0.000182   0.500370   0.500370   x 
            x  La           9         0.749690   0.750080  -0.000189   x 
            x  La          10         0.250423  -0.000389   0.249787   x 
            x  La          11         0.250423   0.249787  -0.000389   x 
            x  La          12         0.749690  -0.000189   0.750080   x 
            x  La          13         0.500000  -0.000234   0.500234   x 
            x  La          14        -0.000000   0.750000   0.750000   x 
            x  La          15         0.000000   0.250000   0.250000   x 
            x  La          16         0.500000   0.500234  -0.000234   x 
            xxxxxxxxxxxxxxxxxxxxxxxxxxxxxxxxxxxxxxxxxxxxxxxxxxxxxxxxxxxx
 
 
                         No user defined ionic velocities
 
                           -------------------------------
                                   Details of Species
                           -------------------------------
 
                               Mass of species in AMU
                                    O   15.9994000
                                    Zr   91.2240000
                                    Sn  118.7100000
                                    La  138.9055000
 
                          Electric Quadrupole Moment (Barn)
                                    O   -0.0255800 Isotope 17
                                    Zr   -0.1760000 Isotope 91
                                    Sn    1.0000000 No Isotope Defined
                                    La    0.2000000 Isotope139
 
                          Files used for pseudopotentials:
                                    O 2|1.1|15|18|20|20:21(qc=7)
                                    Zr 3|2.1|7|8|9|40U:50:41:42
                                    Sn 3|2.2|7|8|9|50:51:42
                                    La 2|2.3|5|6|7|50U:60:51:52(qc=4.5)
 
                           -------------------------------
                              k-Points For BZ Sampling
                           -------------------------------
                       MP grid size for SCF calculation is  3  3  3
                            with an offset of   0.000  0.000  0.000
                       Number of kpoints used =   14
 
                           -------------------------------
                               Symmetry and Constraints
                           -------------------------------
 
                      Maximum deviation from symmetry =  0.00000         ANG
 
         There are no symmetry operations specified or generated for this cell
                      Number of ionic constraints     = 3
                      Point group of crystal =     1: C1, 1, 1
                      Space group of crystal =    12: C2/m, -C 2y
 
 
                         Centre of mass is constrained
             Set iprint > 1 for details of linear ionic constraints
 
                         Number of cell constraints= 0
                         Cell constraints are:  1 2 3 4 5 6
 
                         External pressure/stress (GPa)
                          0.00000   0.00000   0.00000
                                    0.00000   0.00000
                                              0.00000
  
+---------------- MEMORY AND SCRATCH DISK ESTIMATES PER PROCESS --------------+
|                                                     Memory          Disk    |
| Baseline code, static data and system overhead      843.0 MB         0.0 MB |
| BLAS internal memory storage                          0.0 MB         0.0 MB |
| Model and support data                              149.4 MB         0.0 MB |
| Electronic energy minimisation requirements          28.4 MB         0.0 MB |
| Force calculation requirements                        1.5 MB         0.0 MB |
| Stress calculation requirements                       1.8 MB         0.0 MB |
|                                               ----------------------------- |
| Approx. total storage required per process         1020.7 MB         0.0 MB |
|                                                                             |
| Requirements will fluctuate during execution and may exceed these estimates |
+-----------------------------------------------------------------------------+
Calculating finite basis set correction with  3 cut-off energies.
Calculating total energy with cut-off of  806.342eV.
------------------------------------------------------------------------ <-- SCF
SCF loop      Energy           Fermi           Energy gain       Timer   <-- SCF
                               energy          per atom          (sec)   <-- SCF
------------------------------------------------------------------------ <-- SCF
Initial  -5.71868129E+004  0.00000000E+000                        34.84  <-- SCF
      1  -6.52521702E+004  7.52144318E+000   9.16517876E+001      45.65  <-- SCF
      2  -6.78331535E+004  6.48234072E+000   2.93293564E+001      52.98  <-- SCF
      3  -6.79195452E+004  6.26162818E+000   9.81723292E-001      61.17  <-- SCF
      4  -6.79127821E+004  7.60996254E+000  -7.68530411E-002      70.76  <-- SCF
      5  -6.78118512E+004  6.82893348E+000  -1.14694279E+000      80.10  <-- SCF
      6  -6.78130793E+004  6.70433259E+000   1.39564163E-002      92.27  <-- SCF
      7  -6.78127279E+004  6.79715698E+000  -3.99363419E-003     102.62  <-- SCF
      8  -6.78128194E+004  6.79945831E+000   1.04015894E-003     116.47  <-- SCF
      9  -6.78128410E+004  6.79753304E+000   2.45109421E-004     127.68  <-- SCF
     10  -6.78128407E+004  6.79533562E+000  -3.72883364E-006     138.05  <-- SCF
     11  -6.78128400E+004  6.79624113E+000  -6.86838009E-006     148.92  <-- SCF
     12  -6.78128402E+004  6.79591864E+000   1.76458845E-006     160.16  <-- SCF
     13  -6.78128402E+004  6.79519004E+000  -1.79414068E-007     170.02  <-- SCF
     14  -6.78128401E+004  6.79488466E+000  -5.72097600E-007     180.18  <-- SCF
     15  -6.78128401E+004  6.79438029E+000  -1.45001266E-007     191.12  <-- SCF
     16  -6.78128401E+004  6.79417078E+000  -1.54046039E-009     200.83  <-- SCF
     17  -6.78128401E+004  6.79406307E+000   2.33115038E-009     209.73  <-- SCF
     18  -6.78128401E+004  6.79402866E+000  -5.46156838E-010     216.93  <-- SCF
     19  -6.78128401E+004  6.79402116E+000   2.95858390E-010     223.27  <-- SCF
------------------------------------------------------------------------ <-- SCF
 
Final energy, E             =  -67812.84012552     eV
Final free energy (E-TS)    =  -67812.84012552     eV
(energies not corrected for finite basis set)
 
NB est. 0K energy (E-0.5TS)      =  -67812.84012552     eV
 
Calculating total energy with cut-off of  811.342eV.
------------------------------------------------------------------------ <-- SCF
SCF loop      Energy           Fermi           Energy gain       Timer   <-- SCF
                               energy          per atom          (sec)   <-- SCF
------------------------------------------------------------------------ <-- SCF
Initial  -6.78128401E+004  0.00000000E+000                       225.40  <-- SCF
      1  -6.78128426E+004  6.79400931E+000   2.80806198E-005     233.99  <-- SCF
      2  -6.78128426E+004  6.79400931E+000   1.97848268E-010     240.28  <-- SCF
      3  -6.78128426E+004  6.79400686E+000   1.62589934E-008     246.51  <-- SCF
      4  -6.78128426E+004  6.79401479E+000   5.39547834E-010     252.77  <-- SCF
      5  -6.78128426E+004  6.79401378E+000  -4.17632803E-011     259.03  <-- SCF
------------------------------------------------------------------------ <-- SCF
 
Final energy, E             =  -67812.84259810     eV
Final free energy (E-TS)    =  -67812.84259810     eV
(energies not corrected for finite basis set)
 
NB est. 0K energy (E-0.5TS)      =  -67812.84259810     eV
 
Calculating total energy with cut-off of  816.342eV.
------------------------------------------------------------------------ <-- SCF
SCF loop      Energy           Fermi           Energy gain       Timer   <-- SCF
                               energy          per atom          (sec)   <-- SCF
------------------------------------------------------------------------ <-- SCF
Initial  -6.78128426E+004  0.00000000E+000                       261.17  <-- SCF
      1  -6.78128456E+004  6.79402095E+000   3.39861687E-005     269.80  <-- SCF
      2  -6.78128456E+004  6.79402095E+000   2.04457271E-010     276.08  <-- SCF
      3  -6.78128456E+004  6.79401190E+000   2.11558435E-008     282.40  <-- SCF
      4  -6.78128456E+004  6.79401696E+000   6.78055683E-010     288.69  <-- SCF
      5  -6.78128456E+004  6.79401256E+000  -2.47486106E-011     295.04  <-- SCF
------------------------------------------------------------------------ <-- SCF
 
Final energy, E             =  -67812.84559082     eV
Final free energy (E-TS)    =  -67812.84559082     eV
(energies not corrected for finite basis set)
 
NB est. 0K energy (E-0.5TS)      =  -67812.84559082     eV
 
 For future reference: finite basis dEtot/dlog(Ecut) =      -0.440438eV
 Total energy corrected for finite basis set =  -67812.845580 eV
 
  =====================================================================
  +       Calculation of Nuclear Magnetic Resonance Parameters        +
  + ================================================================= +
 
  Starting Calculation of Electric Field Gradient Tensors         |<-- EFG
  +---------------- MEMORY AND SCRATCH DISK ESTIMATES PER PROCESS --------------+
  |                                                     Memory          Disk    |
  | Model and support data                              151.1 MB         0.0 MB |
  | NMR EFG calculation requirements                     27.4 MB         0.0 MB |
  |                                               ----------------------------- |
  | Approx. total storage required per process          178.5 MB         0.0 MB |
  |                                                                             |
  | Requirements will fluctuate during execution and may exceed these estimates |
  +-----------------------------------------------------------------------------+
  Total Time for EFG Tensors                      30.48 sec       |<-- EFG
 
  Starting Calculation of Chemical Shielding Tensors              |<-- NMR
  +---------------- MEMORY AND SCRATCH DISK ESTIMATES PER PROCESS --------------+
  |                                                     Memory          Disk    |
  | Model and support data                              151.1 MB         0.0 MB |
  | NMR chemical shift calculation requirements          90.7 MB         0.0 MB |
  |                                               ----------------------------- |
  | Approx. total storage required per process          241.8 MB         0.0 MB |
  |                                                                             |
  | Requirements will fluctuate during execution and may exceed these estimates |
  +-----------------------------------------------------------------------------+
  Starting k-point:   1 of   1                                    |<-- NMR
  Total Time for step 1 of 6:                    279.42 sec       |<-- NMR
  Total Time for step 2 of 6:                    277.56 sec       |<-- NMR
  Total Time for step 3 of 6:                    278.52 sec       |<-- NMR
  Total Time for step 4 of 6:                    277.33 sec       |<-- NMR
  Total Time for step 5 of 6:                    279.38 sec       |<-- NMR
  Total Time for step 6 of 6:                    278.24 sec       |<-- NMR
  Total Time for Chemical Shielding Tensors     2419.93 sec       |<-- NMR
 
  ========================================================================
  |           Chemical Shielding and Electric Field Gradient Tensors     |
  |----------------------------------------------------------------------|
  |     Nucleus                Shielding tensor             EFG Tensor   |
  |  Species       Ion    Iso(ppm)   Aniso(ppm)  Asym    Cq(MHz)    Eta  |
  |    O           1     -320.26       3.79      0.24  -8.027E-02   0.01 |
  |    O           2     -317.96     -11.85      0.19  -7.043E-02   0.69 |
  |    O           3     -317.87     -12.68      0.39  -7.602E-02   0.49 |
  |    O           4     -317.96     -11.85      0.19  -7.045E-02   0.69 |
  |    O           5     -320.26       3.79      0.24  -8.027E-02   0.01 |
  |    O           6     -317.87     -12.68      0.39  -7.602E-02   0.49 |
  |    O           7     -317.96     -11.85      0.19  -7.043E-02   0.69 |
  |    O           8     -317.96     -11.85      0.19  -7.045E-02   0.69 |
  |    O           9      -86.08      79.93      0.01  -3.287E+00   0.08 |
  |    O          10      -91.67      83.67      0.11  -3.215E+00   0.11 |
  |    O          11     -161.09     142.04      0.75   1.033E+00   0.62 |
  |    O          12      -11.56      58.65      0.73   3.851E+00   0.89 |
  |    O          13       -7.14      59.01      0.90   3.779E+00   0.98 |
  |    O          14      -12.17      58.58      0.74   3.845E+00   0.89 |
  |    O          15     -162.90     155.04      0.74   1.043E+00   0.78 |
  |    O          16      -92.01      87.98      0.10  -3.208E+00   0.10 |
  |    O          17       -7.14      59.01      0.90   3.779E+00   0.98 |
  |    O          18      -12.25      58.53      0.74   3.843E+00   0.90 |
  |    O          19     -162.91     155.03      0.74   1.043E+00   0.77 |
  |    O          20      -90.50      78.85      0.11  -3.224E+00   0.12 |
  |    O          21      -85.91      81.81      0.01  -3.286E+00   0.08 |
  |    O          22      -92.01      87.98      0.10  -3.208E+00   0.10 |
  |    O          23     -161.18     140.59      0.76   1.026E+00   0.62 |
  |    O          24      -12.17      58.58      0.74   3.845E+00   0.89 |
  |    O          25       -7.66      58.49      0.92   3.781E+00   0.97 |
  |    O          26      -11.56      58.65      0.73   3.851E+00   0.89 |
  |    O          27     -163.01     154.33      0.74   1.055E+00   0.76 |
  |    O          28      -91.67      83.67      0.11  -3.215E+00   0.11 |
  |    O          29       -7.14      59.00      0.90   3.779E+00   0.98 |
  |    O          30      -12.17      58.58      0.74   3.845E+00   0.89 |
  |    O          31     -162.90     155.03      0.74   1.043E+00   0.77 |
  |    O          32      -92.01      87.98      0.10  -3.208E+00   0.10 |
  |    O          33      -91.66      83.67      0.11  -3.215E+00   0.11 |
  |    O          34      -11.56      58.65      0.73   3.851E+00   0.89 |
  |    O          35     -162.90     155.04      0.74   1.043E+00   0.78 |
  |    O          36       -7.14      59.01      0.90   3.779E+00   0.98 |
  |    O          37      -85.91      81.81      0.01  -3.286E+00   0.08 |
  |    O          38     -161.18     140.59      0.76   1.026E+00   0.62 |
  |    O          39      -12.24      58.53      0.74   3.843E+00   0.90 |
  |    O          40      -90.50      78.84      0.11  -3.224E+00   0.12 |
  |    O          41      -11.56      58.65      0.73   3.851E+00   0.89 |
  |    O          42      -91.67      83.67      0.11  -3.215E+00   0.11 |
  |    O          43      -92.01      87.98      0.10  -3.208E+00   0.10 |
  |    O          44      -12.17      58.58      0.74   3.845E+00   0.89 |
  |    O          45     -163.01     154.33      0.74   1.055E+00   0.76 |
  |    O          46       -7.66      58.49      0.92   3.781E+00   0.97 |
  |    O          47      -85.91      81.81      0.01  -3.286E+00   0.08 |
  |    O          48     -161.18     140.59      0.76   1.026E+00   0.62 |
  |    O          49      -12.25      58.52      0.74   3.843E+00   0.90 |
  |    O          50      -90.50      78.85      0.11  -3.224E+00   0.12 |
  |    O          51     -161.09     142.04      0.75   1.033E+00   0.62 |
  |    O          52      -86.08      79.92      0.01  -3.287E+00   0.08 |
  |    O          53      -12.24      58.53      0.74   3.843E+00   0.90 |
  |    O          54      -90.50      78.85      0.11  -3.224E+00   0.12 |
  |    O          55      -85.91      81.82      0.01  -3.286E+00   0.08 |
  |    O          56     -161.18     140.59      0.76   1.026E+00   0.62 |
  |    Zr          1     1610.10    -112.25      0.01  -3.716E+01   0.05 |
  |    Zr          2     1609.46    -112.35      0.02  -3.737E+01   0.04 |
  |    Zr          3     1609.46    -112.35      0.02  -3.737E+01   0.04 |
  |    Zr          4     1610.10    -112.25      0.01  -3.716E+01   0.05 |
  |    Zr          5     1609.46    -112.34      0.02  -3.737E+01   0.04 |
  |    Zr          6     1609.47    -112.35      0.02  -3.737E+01   0.04 |
  |    Zr          7     1624.32    -113.56      0.02  -4.021E+01   0.03 |
  |    Sn          1     3254.96     -64.71      0.35   1.217E+02   0.09 |
  |    Sn          2     3253.03     -66.17      0.25   1.244E+02   0.41 |
  |    Sn          3     3254.96     -64.71      0.35   1.217E+02   0.09 |
  |    Sn          4     3253.03     -66.17      0.25   1.244E+02   0.41 |
  |    Sn          5     3254.96     -64.71      0.35   1.217E+02   0.09 |
  |    Sn          6     3254.96     -64.71      0.35   1.217E+02   0.09 |
  |    Sn          7     3255.91     -65.14      0.39   1.218E+02   0.07 |
  |    Sn          8     3253.24     -65.70      0.24   1.247E+02   0.42 |
  |    Sn          9     3255.91     -65.14      0.39   1.218E+02   0.07 |
  |    La          1     4606.34     504.18      0.09  -7.842E+01   0.10 |
  |    La          2     4606.28     503.96      0.09  -7.848E+01   0.09 |
  |    La          3     4650.56     636.57      0.01  -8.020E+01   0.02 |
  |    La          4     4702.19     775.55      0.11  -8.512E+01   0.18 |
  |    La          5     4650.56     636.57      0.01  -8.020E+01   0.02 |
  |    La          6     4606.28     503.96      0.09  -7.847E+01   0.09 |
  |    La          7     4702.18     775.54      0.11  -8.512E+01   0.18 |
  |    La          8     4606.34     504.18      0.09  -7.842E+01   0.10 |
  |    La          9     4650.56     636.57      0.01  -8.020E+01   0.02 |
  |    La         10     4606.29     503.96      0.09  -7.847E+01   0.09 |
  |    La         11     4606.28     503.96      0.09  -7.848E+01   0.09 |
  |    La         12     4650.56     636.57      0.01  -8.020E+01   0.02 |
  |    La         13     4650.52     635.71      0.01  -8.016E+01   0.02 |
  |    La         14     4704.42     785.52      0.10  -8.560E+01   0.17 |
  |    La         15     4517.07     219.00      0.00  -7.419E+01   0.00 |
  |    La         16     4650.52     635.71      0.01  -8.016E+01   0.02 |
  ========================================================================
 
 *********************** Forces ***********************
 *                                                    *
 *            Cartesian components (eV/A)             *
 * -------------------------------------------------- *
 *                   x            y            z      *
 *                                                    *
 * O         1      0.00761     -0.00763     -0.00762 *
 * O         2     -0.01033     -0.01187      0.00907 *
 * O         3      0.01335      0.00929      0.00930 *
 * O         4     -0.01033      0.00906     -0.01186 *
 * O         5     -0.00761      0.00763      0.00762 *
 * O         6     -0.01335     -0.00929     -0.00930 *
 * O         7      0.01033      0.01187     -0.00907 *
 * O         8      0.01033     -0.00906      0.01186 *
 * O         9      0.01528     -0.01748     -0.01748 *
 * O        10     -0.01968     -0.02053     -0.00101 *
 * O        11      0.01490      0.00895      0.00894 *
 * O        12     -0.00802     -0.00349      0.00435 *
 * O        13     -0.00046     -0.02673      0.01069 *
 * O        14      0.00397      0.00973      0.00553 *
 * O        15     -0.00674     -0.00303      0.01197 *
 * O        16      0.01121      0.01202     -0.00191 *
 * O        17     -0.00045      0.01069     -0.02673 *
 * O        18     -0.00307     -0.00556      0.00963 *
 * O        19     -0.00674      0.01198     -0.00302 *
 * O        20     -0.01145     -0.02671      0.01386 *
 * O        21     -0.01003      0.02003      0.01587 *
 * O        22     -0.01121     -0.01203      0.00191 *
 * O        23     -0.00522      0.00255     -0.00987 *
 * O        24     -0.00397     -0.00972     -0.00553 *
 * O        25     -0.02751     -0.00580     -0.00579 *
 * O        26      0.00802      0.00349     -0.00435 *
 * O        27     -0.00390     -0.01139     -0.01139 *
 * O        28      0.01968      0.02054      0.00100 *
 * O        29      0.00045     -0.01070      0.02674 *
 * O        30     -0.00396     -0.00554     -0.00973 *
 * O        31      0.00674     -0.01198      0.00302 *
 * O        32     -0.01121      0.00191     -0.01202 *
 * O        33      0.01968      0.00099      0.02055 *
 * O        34      0.00802     -0.00435      0.00349 *
 * O        35      0.00674      0.00303     -0.01197 *
 * O        36      0.00046      0.02673     -0.01069 *
 * O        37     -0.01002      0.01586      0.02003 *
 * O        38     -0.00523     -0.00988      0.00256 *
 * O        39     -0.00307      0.00962     -0.00557 *
 * O        40     -0.01147      0.01387     -0.02673 *
 * O        41     -0.00802      0.00435     -0.00349 *
 * O        42     -0.01968     -0.00099     -0.02054 *
 * O        43      0.01120     -0.00191      0.01202 *
 * O        44      0.00396      0.00554      0.00973 *
 * O        45      0.00390      0.01139      0.01139 *
 * O        46      0.02750      0.00580      0.00579 *
 * O        47      0.01002     -0.01586     -0.02003 *
 * O        48      0.00523      0.00988     -0.00256 *
 * O        49      0.00307     -0.00962      0.00557 *
 * O        50      0.01147     -0.01387      0.02673 *
 * O        51     -0.01490     -0.00895     -0.00894 *
 * O        52     -0.01528      0.01748      0.01748 *
 * O        53      0.00307      0.00557     -0.00963 *
 * O        54      0.01146      0.02672     -0.01386 *
 * O        55      0.01004     -0.02003     -0.01587 *
 * O        56      0.00522     -0.00255      0.00987 *
 * Zr        1      0.00778     -0.01499     -0.01499 *
 * Zr        2     -0.03614     -0.03011      0.01495 *
 * Zr        3     -0.03614      0.01495     -0.03011 *
 * Zr        4     -0.00778      0.01499      0.01499 *
 * Zr        5      0.03614     -0.01495      0.03011 *
 * Zr        6      0.03614      0.03011     -0.01495 *
 * Zr        7      0.00000     -0.00000     -0.00000 *
 * Sn        1     -0.00640     -0.00289     -0.00324 *
 * Sn        2     -0.00000      0.00000     -0.00000 *
 * Sn        3     -0.00641     -0.00324     -0.00289 *
 * Sn        4     -0.00000     -0.00000      0.00000 *
 * Sn        5      0.00640      0.00323      0.00290 *
 * Sn        6      0.00640      0.00290      0.00323 *
 * Sn        7      0.00000     -0.00418      0.00418 *
 * Sn        8      0.00000      0.00000      0.00000 *
 * Sn        9     -0.00000      0.00418     -0.00418 *
 * La        1      0.02530      0.02139      0.02140 *
 * La        2      0.01901      0.03047     -0.02118 *
 * La        3     -0.00964     -0.01822     -0.01125 *
 * La        4     -0.00000      0.00000     -0.00000 *
 * La        5     -0.00964     -0.01125     -0.01822 *
 * La        6      0.01901     -0.02118      0.03047 *
 * La        7     -0.00000     -0.00000      0.00000 *
 * La        8     -0.02530     -0.02140     -0.02140 *
 * La        9      0.00964      0.01125      0.01822 *
 * La       10     -0.01900      0.02118     -0.03047 *
 * La       11     -0.01900     -0.03047      0.02118 *
 * La       12      0.00964      0.01822      0.01125 *
 * La       13     -0.00000      0.01264     -0.01263 *
 * La       14      0.00000      0.00000      0.00000 *
 * La       15     -0.00000      0.00000      0.00000 *
 * La       16     -0.00000     -0.01264      0.01264 *
 *                                                    *
 ******************************************************
 
 ***************** Stress Tensor *****************
 *                                               *
 *          Cartesian components (GPa)           *
 * --------------------------------------------- *
 *             x             y             z     *
 *                                               *
 *  x      0.047677      0.002528      0.002606  *
 *  y      0.002528     -0.033732     -0.000988  *
 *  z      0.002606     -0.000988     -0.033298  *
 *                                               *
 *  Pressure:    0.0065                          *
 *                                               *
 *************************************************
 
 Pseudo atomic calculation performed for O 2s2 2p4
 
 Converged in 39 iterations to a total energy of -432.6554 eV
 
 
 Pseudo atomic calculation performed for Zr 4s2 4p6 4d2 5s2
 
 Converged in 38 iterations to a total energy of -1285.4931 eV
 
 
 Pseudo atomic calculation performed for Sn 4d10 5s2 5p2
 
 Converged in 48 iterations to a total energy of -2044.5413 eV
 
 
 Pseudo atomic calculation performed for La 5s2 5p6 5d1 6s2
 
 Converged in 34 iterations to a total energy of -968.0373 eV
 
Charge spilling parameter for spin component 1 = 0.25%
 
     Atomic Populations (Mulliken)
     -----------------------------
Species   Ion     s      p      d      f     Total  Charge (e)
==============================================================
  O        1     1.87   5.00   0.00   0.00   6.87    -0.87
  O        2     1.87   5.00   0.00   0.00   6.87    -0.87
  O        3     1.87   5.00   0.00   0.00   6.87    -0.87
  O        4     1.87   5.00   0.00   0.00   6.87    -0.87
  O        5     1.87   5.00   0.00   0.00   6.87    -0.87
  O        6     1.87   5.00   0.00   0.00   6.87    -0.87
  O        7     1.87   5.00   0.00   0.00   6.87    -0.87
  O        8     1.87   5.00   0.00   0.00   6.87    -0.87
  O        9     1.87   4.99   0.00   0.00   6.86    -0.86
  O       10     1.87   4.99   0.00   0.00   6.86    -0.86
  O       11     1.86   4.95   0.00   0.00   6.80    -0.80
  O       12     1.88   5.02   0.00   0.00   6.91    -0.91
  O       13     1.88   5.02   0.00   0.00   6.91    -0.91
  O       14     1.88   5.02   0.00   0.00   6.91    -0.91
  O       15     1.86   4.95   0.00   0.00   6.80    -0.80
  O       16     1.87   4.99   0.00   0.00   6.86    -0.86
  O       17     1.88   5.02   0.00   0.00   6.91    -0.91
  O       18     1.88   5.02   0.00   0.00   6.91    -0.91
  O       19     1.86   4.95   0.00   0.00   6.80    -0.80
  O       20     1.87   4.99   0.00   0.00   6.86    -0.86
  O       21     1.87   4.99   0.00   0.00   6.86    -0.86
  O       22     1.87   4.99   0.00   0.00   6.86    -0.86
  O       23     1.86   4.95   0.00   0.00   6.80    -0.80
  O       24     1.88   5.02   0.00   0.00   6.91    -0.91
  O       25     1.88   5.02   0.00   0.00   6.91    -0.91
  O       26     1.88   5.02   0.00   0.00   6.91    -0.91
  O       27     1.86   4.95   0.00   0.00   6.80    -0.80
  O       28     1.87   4.99   0.00   0.00   6.86    -0.86
  O       29     1.88   5.02   0.00   0.00   6.91    -0.91
  O       30     1.88   5.02   0.00   0.00   6.91    -0.91
  O       31     1.86   4.95   0.00   0.00   6.80    -0.80
  O       32     1.87   4.99   0.00   0.00   6.86    -0.86
  O       33     1.87   4.99   0.00   0.00   6.86    -0.86
  O       34     1.88   5.02   0.00   0.00   6.91    -0.91
  O       35     1.86   4.95   0.00   0.00   6.80    -0.80
  O       36     1.88   5.02   0.00   0.00   6.91    -0.91
  O       37     1.87   4.99   0.00   0.00   6.86    -0.86
  O       38     1.86   4.95   0.00   0.00   6.80    -0.80
  O       39     1.88   5.02   0.00   0.00   6.91    -0.91
  O       40     1.87   4.99   0.00   0.00   6.86    -0.86
  O       41     1.88   5.02   0.00   0.00   6.91    -0.91
  O       42     1.87   4.99   0.00   0.00   6.86    -0.86
  O       43     1.87   4.99   0.00   0.00   6.86    -0.86
  O       44     1.88   5.02   0.00   0.00   6.91    -0.91
  O       45     1.86   4.95   0.00   0.00   6.80    -0.80
  O       46     1.88   5.02   0.00   0.00   6.91    -0.91
  O       47     1.87   4.99   0.00   0.00   6.86    -0.86
  O       48     1.86   4.95   0.00   0.00   6.80    -0.80
  O       49     1.88   5.02   0.00   0.00   6.91    -0.91
  O       50     1.87   4.99   0.00   0.00   6.86    -0.86
  O       51     1.86   4.95   0.00   0.00   6.80    -0.80
  O       52     1.87   4.99   0.00   0.00   6.86    -0.86
  O       53     1.88   5.02   0.00   0.00   6.91    -0.91
  O       54     1.87   4.99   0.00   0.00   6.86    -0.86
  O       55     1.87   4.99   0.00   0.00   6.86    -0.86
  O       56     1.86   4.95   0.00   0.00   6.80    -0.80
  Zr       1     2.36   6.48   1.92   0.00  10.77     1.23
  Zr       2     2.36   6.48   1.92   0.00  10.77     1.23
  Zr       3     2.36   6.48   1.92   0.00  10.77     1.23
  Zr       4     2.36   6.48   1.92   0.00  10.77     1.23
  Zr       5     2.36   6.48   1.92   0.00  10.77     1.23
  Zr       6     2.36   6.48   1.92   0.00  10.77     1.23
  Zr       7     2.36   6.45   1.93   0.00  10.74     1.26
  Sn       1     1.05   1.31  10.00   0.00  12.36     1.64
  Sn       2     1.05   1.31  10.00   0.00  12.36     1.64
  Sn       3     1.05   1.31  10.00   0.00  12.36     1.64
  Sn       4     1.05   1.31  10.00   0.00  12.36     1.64
  Sn       5     1.05   1.31  10.00   0.00  12.36     1.64
  Sn       6     1.05   1.31  10.00   0.00  12.36     1.64
  Sn       7     1.05   1.31  10.00   0.00  12.36     1.64
  Sn       8     1.05   1.31  10.00   0.00  12.36     1.64
  Sn       9     1.05   1.31  10.00   0.00  12.36     1.64
  La       1     2.09   6.19   1.19   0.00   9.47     1.53
  La       2     2.09   6.19   1.19   0.00   9.47     1.53
  La       3     2.06   6.17   1.19   0.00   9.42     1.58
  La       4     2.02   6.15   1.20   0.00   9.37     1.63
  La       5     2.06   6.17   1.19   0.00   9.42     1.58
  La       6     2.09   6.19   1.19   0.00   9.47     1.53
  La       7     2.02   6.15   1.20   0.00   9.37     1.63
  La       8     2.09   6.19   1.19   0.00   9.47     1.53
  La       9     2.06   6.17   1.19   0.00   9.42     1.58
  La      10     2.09   6.19   1.19   0.00   9.47     1.53
  La      11     2.09   6.19   1.19   0.00   9.47     1.53
  La      12     2.06   6.17   1.19   0.00   9.42     1.58
  La      13     2.06   6.17   1.19   0.00   9.42     1.58
  La      14     2.02   6.15   1.20   0.00   9.37     1.63
  La      15     2.13   6.23   1.19   0.00   9.55     1.45
  La      16     2.06   6.17   1.19   0.00   9.42     1.58
==============================================================
 
            Bond              Population      Length (A)
============================================================
         O 47 -- Sn 2              0.36        2.09586
         O 55 -- Sn 4              0.36        2.09586
         O 37 -- Sn 2              0.36        2.09586
         O 21 -- Sn 4              0.36        2.09586
         O 9  -- Sn 8              0.36        2.09588
         O 52 -- Sn 8              0.36        2.09588
         O 20 -- Sn 3              0.35        2.10080
         O 54 -- Sn 5              0.35        2.10080
         O 40 -- Sn 1              0.35        2.10080
         O 50 -- Sn 6              0.35        2.10080
         O 42 -- Sn 6              0.34        2.10127
         O 33 -- Sn 1              0.34        2.10127
         O 10 -- Sn 5              0.34        2.10127
         O 28 -- Sn 3              0.34        2.10127
         O 43 -- Sn 7              0.34        2.10165
         O 32 -- Sn 9              0.34        2.10165
         O 16 -- Sn 9              0.34        2.10165
         O 22 -- Sn 7              0.34        2.10165
         O 27 -- Zr 4              0.43        2.11126
         O 45 -- Zr 1              0.43        2.11126
         O 19 -- Zr 5              0.43        2.11239
         O 31 -- Zr 3              0.43        2.11239
         O 15 -- Zr 6              0.43        2.11239
         O 35 -- Zr 2              0.43        2.11239
         O 43 -- Zr 2              0.44        2.11333
         O 32 -- Zr 6              0.44        2.11333
         O 16 -- Zr 3              0.44        2.11333
         O 22 -- Zr 5              0.44        2.11333
         O 41 -- Sn 9              0.33        2.11419
         O 34 -- Sn 7              0.33        2.11419
         O 26 -- Sn 9              0.33        2.11419
         O 12 -- Sn 7              0.33        2.11419
         O 29 -- Sn 7              0.34        2.11429
         O 17 -- Sn 9              0.34        2.11429
         O 36 -- Sn 9              0.34        2.11429
         O 13 -- Sn 7              0.34        2.11429
         O 44 -- Sn 1              0.33        2.11470
         O 30 -- Sn 6              0.33        2.11470
         O 14 -- Sn 3              0.33        2.11470
         O 24 -- Sn 5              0.33        2.11470
         O 53 -- Sn 1              0.33        2.11517
         O 18 -- Sn 6              0.33        2.11517
         O 49 -- Sn 3              0.33        2.11517
         O 39 -- Sn 5              0.33        2.11517
         O 25 -- Sn 6              0.34        2.11519
         O 25 -- Sn 5              0.34        2.11519
         O 46 -- Sn 1              0.34        2.11519
         O 46 -- Sn 3              0.34        2.11519
         O 29 -- Sn 3              0.34        2.11635
         O 17 -- Sn 5              0.34        2.11635
         O 36 -- Sn 1              0.34        2.11635
         O 13 -- Sn 6              0.34        2.11635
         O 27 -- Zr 7              0.42        2.11696
         O 45 -- Zr 7              0.42        2.11696
         O 53 -- Sn 4              0.33        2.11728
         O 18 -- Sn 4              0.33        2.11728
         O 49 -- Sn 2              0.33        2.11728
         O 39 -- Sn 2              0.33        2.11728
         O 41 -- Sn 2              0.33        2.11742
         O 34 -- Sn 2              0.33        2.11742
         O 26 -- Sn 4              0.33        2.11742
         O 12 -- Sn 4              0.33        2.11742
         O 44 -- Sn 8              0.33        2.11760
         O 30 -- Sn 8              0.33        2.11760
         O 14 -- Sn 8              0.33        2.11760
         O 24 -- Sn 8              0.33        2.11760
         O 31 -- Zr 7              0.43        2.11792
         O 35 -- Zr 7              0.43        2.11792
         O 19 -- Zr 7              0.43        2.11792
         O 15 -- Zr 7              0.43        2.11792
         O 10 -- Zr 3              0.44        2.11806
         O 28 -- Zr 5              0.44        2.11806
         O 42 -- Zr 2              0.44        2.11806
         O 33 -- Zr 6              0.44        2.11806
         O 38 -- Zr 4              0.44        2.12047
         O 48 -- Zr 1              0.44        2.12047
         O 23 -- Zr 4              0.44        2.12047
         O 56 -- Zr 1              0.44        2.12047
         O 37 -- Zr 5              0.43        2.12137
         O 47 -- Zr 3              0.43        2.12137
         O 21 -- Zr 6              0.43        2.12137
         O 55 -- Zr 2              0.43        2.12137
         O 20 -- Zr 4              0.43        2.12237
         O 54 -- Zr 1              0.43        2.12237
         O 50 -- Zr 1              0.43        2.12237
         O 40 -- Zr 4              0.43        2.12237
         O 52 -- Zr 1              0.43        2.12246
         O 9  -- Zr 4              0.43        2.12246
         O 51 -- Zr 3              0.43        2.12348
         O 11 -- Zr 5              0.43        2.12348
         O 51 -- Zr 2              0.43        2.12348
         O 11 -- Zr 6              0.43        2.12348
         O 48 -- Zr 6              0.43        2.12852
         O 38 -- Zr 2              0.43        2.12852
         O 56 -- Zr 5              0.43        2.12852
         O 23 -- Zr 3              0.43        2.12852
         O 3  -- La 14             0.18        2.35583
         O 6  -- La 14             0.18        2.35583
         O 8  -- La 4              0.18        2.35640
         O 4  -- La 4              0.18        2.35640
         O 7  -- La 7              0.18        2.35640
         O 2  -- La 7              0.18        2.35640
         O 8  -- La 5              0.17        2.35860
         O 4  -- La 9              0.17        2.35860
         O 7  -- La 3              0.17        2.35860
         O 2  -- La 12             0.17        2.35860
         O 8  -- La 13             0.17        2.35905
         O 7  -- La 16             0.17        2.35905
         O 4  -- La 16             0.17        2.35905
         O 2  -- La 13             0.17        2.35905
         O 6  -- La 9              0.17        2.35937
         O 3  -- La 5              0.17        2.35937
         O 6  -- La 12             0.17        2.35937
         O 3  -- La 3              0.17        2.35937
         O 2  -- La 2              0.18        2.35937
         O 7  -- La 11             0.18        2.35937
         O 4  -- La 6              0.18        2.35937
         O 8  -- La 10             0.18        2.35937
         O 3  -- La 8              0.18        2.35992
         O 6  -- La 1              0.18        2.35992
         O 1  -- La 1              0.16        2.36147
         O 5  -- La 8              0.16        2.36147
         O 1  -- La 11             0.16        2.36174
         O 5  -- La 2              0.16        2.36174
         O 1  -- La 10             0.16        2.36174
         O 5  -- La 6              0.16        2.36174
         O 1  -- La 15             0.17        2.36355
         O 5  -- La 15             0.17        2.36355
         O 50 -- La 5              0.17        2.66757
         O 40 -- La 9              0.17        2.66757
         O 54 -- La 3              0.17        2.66757
         O 20 -- La 12             0.17        2.66757
         O 56 -- La 2              0.14        2.66826
         O 23 -- La 11             0.14        2.66826
         O 48 -- La 6              0.14        2.66826
         O 38 -- La 10             0.14        2.66826
         O 11 -- La 8              0.14        2.66917
         O 51 -- La 1              0.14        2.66917
         O 33 -- La 13             0.17        2.66919
         O 28 -- La 16             0.17        2.66919
         O 42 -- La 16             0.17        2.66919
         O 10 -- La 13             0.17        2.66919
         O 49 -- La 12             0.24        2.66984
         O 39 -- La 3              0.24        2.66984
         O 53 -- La 9              0.24        2.66984
         O 18 -- La 5              0.24        2.66984
         O 22 -- La 9              0.17        2.67011
         O 16 -- La 5              0.17        2.67011
         O 32 -- La 12             0.17        2.67011
         O 43 -- La 3              0.17        2.67011
         O 24 -- La 13             0.24        2.67012
         O 14 -- La 16             0.24        2.67012
         O 30 -- La 16             0.24        2.67012
         O 44 -- La 13             0.24        2.67012
         O 34 -- La 3              0.24        2.67127
         O 41 -- La 12             0.24        2.67127
         O 26 -- La 5              0.24        2.67127
         O 12 -- La 9              0.24        2.67127
         O 46 -- La 1              0.25        2.67167
         O 25 -- La 8              0.25        2.67167
         O 13 -- La 11             0.25        2.67226
         O 36 -- La 2              0.25        2.67226
         O 17 -- La 10             0.25        2.67226
         O 29 -- La 6              0.25        2.67226
         O 27 -- La 12             0.13        2.67256
         O 45 -- La 3              0.13        2.67256
         O 45 -- La 5              0.13        2.67256
         O 27 -- La 9              0.13        2.67256
         O 15 -- La 12             0.13        2.67308
         O 35 -- La 3              0.13        2.67308
         O 19 -- La 9              0.13        2.67308
         O 31 -- La 5              0.13        2.67308
         O 35 -- La 16             0.13        2.67314
         O 31 -- La 13             0.13        2.67314
         O 15 -- La 13             0.13        2.67314
         O 19 -- La 16             0.13        2.67314
         O 14 -- La 6              0.24        2.67329
         O 24 -- La 10             0.24        2.67329
         O 30 -- La 11             0.24        2.67330
         O 44 -- La 2              0.24        2.67330
         O 46 -- La 15             0.24        2.67332
         O 25 -- La 15             0.24        2.67332
         O 39 -- La 8              0.24        2.67345
         O 49 -- La 1              0.24        2.67345
         O 18 -- La 8              0.24        2.67345
         O 53 -- La 1              0.24        2.67345
         O 13 -- La 15             0.24        2.67353
         O 36 -- La 15             0.24        2.67353
         O 17 -- La 15             0.24        2.67353
         O 29 -- La 15             0.24        2.67353
         O 11 -- La 14             0.13        2.67407
         O 51 -- La 14             0.13        2.67407
         O 12 -- La 6              0.24        2.67452
         O 26 -- La 10             0.24        2.67452
         O 34 -- La 11             0.24        2.67452
         O 41 -- La 2              0.24        2.67452
         O 23 -- La 7              0.13        2.67480
         O 56 -- La 7              0.13        2.67480
         O 38 -- La 4              0.13        2.67480
         O 48 -- La 4              0.13        2.67480
         O 9  -- La 10             0.18        2.67522
         O 52 -- La 6              0.18        2.67522
         O 9  -- La 11             0.18        2.67522
         O 52 -- La 2              0.18        2.67522
         O 55 -- La 1              0.18        2.67547
         O 21 -- La 8              0.18        2.67547
         O 47 -- La 1              0.18        2.67547
         O 37 -- La 8              0.18        2.67547
         O 55 -- La 10             0.18        2.67577
         O 21 -- La 6              0.18        2.67577
         O 47 -- La 11             0.18        2.67577
         O 37 -- La 2              0.18        2.67577
         O 22 -- La 14             0.17        2.67810
         O 16 -- La 14             0.17        2.67810
         O 32 -- La 14             0.17        2.67810
         O 43 -- La 14             0.17        2.67811
         O 50 -- La 4              0.17        2.67853
         O 40 -- La 4              0.17        2.67853
         O 54 -- La 7              0.17        2.67853
         O 20 -- La 7              0.17        2.67854
         O 28 -- La 7              0.17        2.67924
         O 33 -- La 4              0.17        2.67924
         O 10 -- La 7              0.17        2.67924
         O 42 -- La 4              0.17        2.67924
         O 34 -- O 43             -0.06        2.79177
         O 32 -- O 41             -0.06        2.79177
         O 16 -- O 26             -0.06        2.79177
         O 12 -- O 22             -0.06        2.79177
         O 16 -- O 32             -0.06        2.79226
         O 22 -- O 43             -0.06        2.79226
         O 30 -- O 42             -0.06        2.79283
         O 33 -- O 44             -0.06        2.79283
         O 14 -- O 28             -0.06        2.79283
         O 10 -- O 24             -0.06        2.79283
         O 20 -- O 28             -0.06        2.79357
         O 10 -- O 54             -0.06        2.79357
         O 33 -- O 40             -0.06        2.79358
         O 42 -- O 50             -0.06        2.79358
         O 39 -- O 54             -0.06        2.79460
         O 18 -- O 50             -0.06        2.79460
         O 20 -- O 49             -0.06        2.79460
         O 40 -- O 53             -0.06        2.79460
         O 9  -- O 30             -0.06        2.79815
         O 44 -- O 52             -0.06        2.79815
         O 9  -- O 24             -0.06        2.79815
         O 14 -- O 52             -0.06        2.79815
         O 34 -- O 47             -0.06        2.79866
         O 37 -- O 41             -0.06        2.79866
         O 26 -- O 55             -0.06        2.79866
         O 12 -- O 21             -0.06        2.79866
         O 53 -- O 55             -0.06        2.79922
         O 18 -- O 21             -0.06        2.79922
         O 47 -- O 49             -0.06        2.79922
         O 37 -- O 39             -0.06        2.79922
         O 12 -- O 53             -0.05        2.80578
         O 18 -- O 26             -0.05        2.80578
         O 41 -- O 49             -0.05        2.80579
         O 34 -- O 39             -0.05        2.80579
         O 24 -- O 44             -0.05        2.80727
         O 14 -- O 30             -0.05        2.80727
         O 12 -- O 29             -0.05        2.80861
         O 17 -- O 26             -0.05        2.80862
         O 36 -- O 41             -0.05        2.80862
         O 13 -- O 34             -0.05        2.80862
         O 18 -- O 25             -0.05        2.80891
         O 46 -- O 53             -0.05        2.80891
         O 25 -- O 39             -0.05        2.80892
         O 46 -- O 49             -0.05        2.80892
         O 14 -- O 29             -0.05        2.80997
         O 17 -- O 24             -0.05        2.80997
         O 36 -- O 44             -0.05        2.80997
         O 13 -- O 30             -0.05        2.80997
         O 17 -- O 25             -0.05        2.81387
         O 29 -- O 46             -0.05        2.81387
         O 36 -- O 46             -0.05        2.81388
         O 13 -- O 25             -0.05        2.81388
         O 13 -- O 29             -0.05        2.81538
         O 17 -- O 36             -0.05        2.81538
         O 10 -- O 31             -0.03        2.81721
         O 19 -- O 28             -0.03        2.81721
         O 35 -- O 42             -0.03        2.81722
         O 15 -- O 33             -0.03        2.81722
         O 20 -- O 27             -0.03        2.81758
         O 45 -- O 54             -0.03        2.81758
         O 27 -- O 40             -0.03        2.81759
         O 45 -- O 50             -0.03        2.81759
         O 35 -- O 43             -0.03        2.81936
         O 15 -- O 32             -0.03        2.81936
         O 19 -- O 22             -0.03        2.81936
         O 16 -- O 31             -0.03        2.81936
         O 19 -- O 27             -0.03        2.81968
         O 31 -- O 45             -0.03        2.81968
         O 15 -- O 27             -0.03        2.81968
         O 35 -- O 45             -0.03        2.81968
         O 15 -- O 31             -0.03        2.82209
         O 19 -- O 35             -0.03        2.82209
         O 38 -- O 42             -0.03        2.82579
         O 33 -- O 48             -0.03        2.82579
         O 10 -- O 23             -0.03        2.82580
         O 28 -- O 56             -0.03        2.82580
         O 43 -- O 51             -0.03        2.82689
         O 11 -- O 32             -0.03        2.82689
         O 16 -- O 51             -0.03        2.82690
         O 11 -- O 22             -0.03        2.82690
         O 11 -- O 37             -0.03        2.82803
         O 47 -- O 51             -0.03        2.82803
         O 11 -- O 21             -0.03        2.82803
         O 51 -- O 55             -0.03        2.82803
         O 21 -- O 48             -0.03        2.82824
         O 37 -- O 56             -0.03        2.82824
         O 23 -- O 47             -0.03        2.82824
         O 38 -- O 55             -0.03        2.82824
         O 48 -- O 52             -0.03        2.82881
         O 9  -- O 38             -0.03        2.82881
         O 52 -- O 56             -0.03        2.82882
         O 9  -- O 23             -0.03        2.82882
         O 20 -- O 23             -0.03        2.82898
         O 54 -- O 56             -0.03        2.82898
         O 48 -- O 50             -0.03        2.82899
         O 38 -- O 40             -0.03        2.82899
============================================================
 
Initialisation time =     24.94 s
Calculation time    =   2736.83 s
Finalisation time   =      0.12 s
Total time          =   2761.89 s
Peak Memory Use     = 3733104 kB
  
Overall parallel efficiency rating: Good (74%)                                  
  
Data was distributed by:-
G-vector (64-way); efficiency rating: Good (74%)                                
k-point (14-way); efficiency rating: Excellent (99%)                            
