 +-------------------------------------------------+
 |                                                 |
 |      CCC   AA    SSS  TTTTT  EEEEE  PPPP        |
 |     C     A  A  S       T    E      P   P       |
 |     C     AAAA   SS     T    EEE    PPPP        |
 |     C     A  A     S    T    E      P           |
 |      CCC  A  A  SSS     T    EEEEE  P           |
 |                                                 |
 +-------------------------------------------------+
 |                                                 |
 | Welcome to Academic Release CASTEP version 16.11|          
 | Ab Initio Total Energy Program                  |
 |                                                 |
 | Authors:                                        |
 | M. Segall, M. Probert, C. Pickard, P. Hasnip,   |
 | S. Clark, K. Refson, J. R. Yates, M. Payne      |
 |                                                 |
 | Contributors:                                   |
 | P. Lindan, P. Haynes, J. White, V. Milman,      |
 | N. Govind, M. Gibson, P. Tulip, V. Cocula,      |
 | B. Montanari, D. Quigley, M. Glover,            |
 | L. Bernasconi, A. Perlov, M. Plummer,           |
 | E. McNellis, J. Meyer, J. Gale, D. Jochym       |
 | J. Aarons, B. Walker, R. Gillen, D. Jones       |
 | T. Green, I. J. Bush, C. J. Armstrong,          |
 | E. J. Higgins, E. L. Brown, M. S. McFly         |
 |                                                 |
 | Copyright (c) 2000 - 2015                       |
 |                                                 |
 |     Distributed under the terms of an           |
 |     Agreement between the United Kingdom        |
 |     Car-Parrinello (UKCP) Consortium,           |
 |     Daresbury Laboratory and Accelrys, Inc.     |
 |                                                 |
 | Please cite                                     |
 |                                                 |
 |     "First principles methods using CASTEP"     |
 |                                                 |
 |         Zeitschrift fuer Kristallographie       |
 |           220(5-6) pp. 567-570 (2005)           |
 |                                                 |
 | S. J. Clark, M. D. Segall, C. J. Pickard,       |
 | P. J. Hasnip, M. J. Probert, K. Refson,         |
 | M. C. Payne                                     |
 |                                                 |
 |       in all publications arising from          |
 |              your use of CASTEP                 |
 |                                                 |
 +-------------------------------------------------+
 
 
 Compiled for linux_x86_64_ifort17 on Mon, 09 Apr 2018 23:35:31 +0100
 from code version 
 203e84763863+ Castep161_branch Fri, 04 Mar 2016 19:21:07 +0000
 Compiler: Intel Fortran 17.0.1.132; Optimisation: fast
 MATHLIBS: Intel MKL(2017.0.1) (LAPACK version 3.6.0)
 FFT Lib : mkl
 Fundamental constants values: CODATA 2010
 
 Run started: Thu, 10 Sep 2020 13:02:58 +0100
 +-------------------------------------------------+
 |                                                 |
 |           N   N    M   M    RRRR                |
 |           NN  N    MM MM    R   R               |
 |           N N N    M M M    RRRR                |
 |           N  NN    M   M    R  R                |
 |           N   N    M   M    R   R               |
 |                                                 |
 +-------------------------------------------------+
 |                                                 |
 | Welcome to Materials Studio CASTEP-NMR          |
 |                                                 |
 | Authors:                                        |
 | J.R. Yates, C.J. Pickard, F. Mauri              |
 |                                                 |
 | Contributors:                                   |
 | T.F.G. Green, S.A. Joyce                        |
 |                                                 |
 | Copyright (c) 2004 - 2015                       |
 |                                                 |
 | Please cite the appropriate publications in all |
 | work arising from your use of CASTEP NMR.       |
 |                                                 |
 | For NMR Shielding Tensors cite:                 |
 |    "All-electron magnetic response with         |
 |    pseudopotentials: NMR chemical shifts",      |
 |    C. J. Pickard, F. Mauri;                     |
 |    Physical Review B63 245101 (2001), and       |
 |                                                 |
 |    "Calculation of NMR Chemical Shifts          |
 |    for extended systems using                   |
 |    Ultrasoft Pseudopotentials",                 |
 |    J. R. Yates, C. J. Pickard and F. Mauri      |
 |    Physical Review B76 024401 (2007)            |
 |                                                 |
 | For Electric Field Gradients cite:              |
 |   "Accurate First Principles Prediction of 17O  |
 |    NMR Parameters in SiO2: Assignment of the    |
 |    Zeolite Ferrierite Spectrum"                 |
 |    M. Profeta, F. Mauri and C. J. Pickard       |
 |    J. Amer. Chem. Soc. 125 541 (2003)           |
 |                                                 |
 | For Spin-Spin (J) Couplings cite:               |
 |   "A first principles theory of NMR J-coupling  |
 |   in solid-state systems"                       |
 |   S.A. Joyce, J.R. Yates, C.J. Pickard, F. Mauri|
 |   J. Chem. Phys. 127 204107 (2007)              |
 |                                                 |
 |   "Relativistic NMR J-coupling with ultrasoft   |
 |   pseudopotentials and the zeroth-order regular |
 |   approximation"                                |
 |   T.F.G. Green and J.R. Yates                   |
 |   J. Chem. Phys. 140 234106 (2014)              |
 |                                                 |
 +-------------------------------------------------+
 
 
 Atomic calculation performed for O: 1s2 2s2 2p4
 
 Converged in 44 iterations to an ae energy of -2040.855 eV
 
 
 Atomic calculation performed for O: 1s2 2s2 2p4
 
 Exceeded max iterations: converged to 0.000000062 eV
 
   ============================================================                
   | Pseudopotential Report - Date of generation 10-09-2020   |                
   ------------------------------------------------------------                
   | Element: O Ionic charge:  6.00 Level of theory: PBE      |                
   | Atomic Solver: ZORA (scalar)                             |                
   |                                                          |                
   |               Reference Electronic Structure             |                
   |         Orbital         Occupation         Energy        |                
   |            2s              2.000           -0.881        |                
   |            2p              4.000           -0.332        |                
   |                                                          |                
   |                 Pseudopotential Definition               |                
   |        Beta     l      e      Rc     scheme   norm       |                
   |          1      0   -0.881   1.100     qc      0         |                
   |          2      0    0.250   1.100     qc      0         |                
   |          3      1   -0.332   1.100     qc      0         |                
   |          4      1    0.250   1.100     qc      0         |                
   |         loc     2    0.000   1.100     pn      0         |                
   |                                                          |                
   | Augmentation charge Rinner = 0.769                       |                
   | Partial core correction Rc = 0.769                       |                
   ------------------------------------------------------------                
   | "2|1.1|15|18|20|20:21(qc=7)"                             |                
   ------------------------------------------------------------                
   |      Author: Chris J. Pickard, Cambridge University      |                
   ============================================================                
 
 Atomic calculation performed for Zr: 1s2 2s2 2p6 3s2 3p6 3d10 4s2 4p6 4d2 5s2
 
 Converged in 53 iterations to an ae energy of -97719.888 eV
 
 
 Atomic calculation performed for Zr: 1s2 2s2 2p6 3s2 3p6 3d10 4s2 4p6 4d2 5s2
 
 Exceeded max iterations: converged to 0.000000970 eV
 
 Warning: ion_atom_descreen_psp: negative charge density encountered
   ============================================================                
   | Pseudopotential Report - Date of generation 10-09-2020   |                
   ------------------------------------------------------------                
   | Element: Zr Ionic charge: 12.00 Level of theory: PBE     |                
   | Atomic Solver: ZORA (scalar)                             |                
   |                                                          |                
   |               Reference Electronic Structure             |                
   |         Orbital         Occupation         Energy        |                
   |            4s              2.000           -2.003        |                
   |            4p              6.000           -1.193        |                
   |            5s              2.000           -0.163        |                
   |            4d              2.000           -0.132        |                
   |                                                          |                
   |                 Pseudopotential Definition               |                
   |        Beta     l      e      Rc     scheme   norm       |                
   |          1      0   -2.003   2.105     qc      0         |                
   |          2      0   -0.163   2.105     qc      0         |                
   |          3      0    0.250   2.105     qc      0         |                
   |          4      1   -1.193   2.105     qc      0         |                
   |          5      1    0.250   2.105     qc      0         |                
   |          6      2   -0.132   2.105     qc      0         |                
   |          7      2    0.250   2.105     qc      0         |                
   |         loc     3    0.000   2.105     pn      0         |                
   |                                                          |                
   | Augmentation charge Rinner = 1.471                       |                
   | Partial core correction Rc = 1.471                       |                
   ------------------------------------------------------------                
   | "3|2.1|7|8|9|40U:50:41:42"                               |                
   ------------------------------------------------------------                
   |      Author: Chris J. Pickard, Cambridge University      |                
   ============================================================                
 
 Atomic calculation performed for Sn:
 1s2 2s2 2p6 3s2 3p6 3d10 4s2 4p6 4d10 5s2 5p2
 
 Converged in 58 iterations to an ae energy of -167539.320 eV
 
 
 Atomic calculation performed for Sn:
 1s2 2s2 2p6 3s2 3p6 3d10 4s2 4p6 4d10 5s2 5p2
 
 Exceeded max iterations: converged to 0.000001154 eV
 
   ============================================================                
   | Pseudopotential Report - Date of generation 10-09-2020   |                
   ------------------------------------------------------------                
   | Element: Sn Ionic charge: 14.00 Level of theory: PBE     |                
   | Atomic Solver: ZORA (scalar)                             |                
   |                                                          |                
   |               Reference Electronic Structure             |                
   |         Orbital         Occupation         Energy        |                
   |            4d             10.000           -0.950        |                
   |            5s              2.000           -0.388        |                
   |            5p              2.000           -0.136        |                
   |                                                          |                
   |                 Pseudopotential Definition               |                
   |        Beta     l      e      Rc     scheme   norm       |                
   |          1      0   -0.388   2.199     qc      0         |                
   |          2      0    0.250   2.199     qc      0         |                
   |          3      1   -0.136   2.199     qc      0         |                
   |          4      1    0.250   2.199     qc      0         |                
   |          5      2   -0.950   2.199     qc      0         |                
   |          6      2    0.250   2.199     qc      0         |                
   |         loc     3    0.000   2.199     pn      0         |                
   |                                                          |                
   | Augmentation charge Rinner = 1.537                       |                
   | Partial core correction Rc = 1.537                       |                
   ------------------------------------------------------------                
   | "3|2.2|7|8|9|50:51:42"                                   |                
   ------------------------------------------------------------                
   |      Author: Chris J. Pickard, Cambridge University      |                
   ============================================================                
 
 Atomic calculation performed for La:
 1s2 2s2 2p6 3s2 3p6 3d10 4s2 4p6 4d10 5s2 5p6 5d1 6s2
 
 Converged in 56 iterations to an ae energy of -230121.495 eV
 
 
 Atomic calculation performed for La:
 1s2 2s2 2p6 3s2 3p6 3d10 4s2 4p6 4d10 5s2 5p6 5d1 6s2
 
 Exceeded max iterations: converged to 0.000000907 eV
 
 Warning: ion_atom_descreen_psp: negative charge density encountered
   ============================================================                
   | Pseudopotential Report - Date of generation 10-09-2020   |                
   ------------------------------------------------------------                
   | Element: La Ionic charge: 11.00 Level of theory: PBE     |                
   | Atomic Solver: ZORA (scalar)                             |                
   |                                                          |                
   |               Reference Electronic Structure             |                
   |         Orbital         Occupation         Energy        |                
   |            5s              2.000           -1.430        |                
   |            5p              6.000           -0.823        |                
   |            6s              2.000           -0.135        |                
   |            5d              1.000           -0.114        |                
   |                                                          |                
   |                 Pseudopotential Definition               |                
   |        Beta     l      e      Rc     scheme   norm       |                
   |          1      0   -1.430   2.298     qc      0         |                
   |          2      0   -0.135   2.298     qc      0         |                
   |          3      0    0.250   2.298     qc      0         |                
   |          4      1   -0.823   2.298     qc      0         |                
   |          5      1    0.250   2.298     qc      0         |                
   |          6      2   -0.114   2.298     qc      0         |                
   |          7      2    0.250   2.298     qc      0         |                
   |         loc     2    0.000   2.298     pn      0         |                
   |                                                          |                
   | Augmentation charge Rinner = 1.606                       |                
   | Partial core correction Rc = 1.606                       |                
   ------------------------------------------------------------                
   | "2|2.3|5|6|7|50U:60:51:52(qc=4.5)"                       |                
   ------------------------------------------------------------                
   |      Author: Chris J. Pickard, Cambridge University      |                
   ============================================================                
 
 Pseudo atomic calculation performed for O 2s2 2p4
 
 Converged in 39 iterations to a total energy of -432.6554 eV
 
 
 Pseudo atomic calculation performed for Zr 4s2 4p6 4d2 5s2
 
 Converged in 38 iterations to a total energy of -1285.4931 eV
 
 
 Pseudo atomic calculation performed for Sn 4d10 5s2 5p2
 
 Converged in 48 iterations to a total energy of -2044.5414 eV
 
 
 Pseudo atomic calculation performed for La 5s2 5p6 5d1 6s2
 
 Converged in 34 iterations to a total energy of -968.0372 eV
 
 Calculation parallelised over 336 processes.
 Data is distributed by G-vector(24-way) and k-point(14-way)

 ************************************ Title ************************************
 nmr testing

 ***************************** General Parameters ******************************
  
 output verbosity                               : normal  (1)
 write checkpoint data to                       : Zr11_01_nmr.check
 type of calculation                            : Magnetic Resonance
 stress calculation                             : on
 density difference calculation                 : off
 electron localisation func (ELF) calculation   : off
 Hirshfeld analysis                             : off
 unlimited duration calculation
 timing information                             : on
 memory usage estimate                          : on
 write final potential to formatted file        : off
 write final density to formatted file          : off
 write BibTeX reference list                    : on
 write OTFG pseudopotential files               : on
 checkpoint writing                             : both castep_bin and check files
  
 output         length unit                     : A
 output           mass unit                     : amu
 output           time unit                     : ps
 output         charge unit                     : e
 output           spin unit                     : hbar/2
 output         energy unit                     : eV
 output          force unit                     : eV/A
 output       velocity unit                     : A/ps
 output       pressure unit                     : GPa
 output     inv_length unit                     : 1/A
 output      frequency unit                     : cm-1
 output force constant unit                     : eV/A**2
 output         volume unit                     : A**3
 output   IR intensity unit                     : (D/A)**2/amu
 output         dipole unit                     : D
 output         efield unit                     : eV/A/e
 output        entropy unit                     : J/mol/K
  
 wavefunctions paging                           : none
 random number generator seed                   : randomised (130259111)
 data distribution                              : optimal for this architecture
 optimization strategy                          : maximize speed(+++)

 *********************** Exchange-Correlation Parameters ***********************
  
 using functional                               : Perdew Burke Ernzerhof
 relativistic treatment                         : ZORA
 DFT+D: Semi-empirical dispersion correction    : off

 ************************* Pseudopotential Parameters **************************
  
 pseudopotential representation                 : reciprocal space
 <beta|phi> representation                      : reciprocal space
 spin-orbit coupling                            : off

 **************************** Basis Set Parameters *****************************
  
 plane wave basis set cut-off                   :   816.3416   eV
 size of standard grid                          :     1.7500
 size of   fine   gmax                          :    25.6161   1/A
 finite basis set correction                    : automatic
 number of sample energies                      :          3
           sample  spacing                      :     5.0000   eV

 **************************** Electronic Parameters ****************************
  
 number of  electrons                           :  714.0    
 net charge of system                           :  0.000    
 treating system as non-spin-polarized
 number of bands                                :        428

 ********************* Electronic Minimization Parameters **********************
  
 Method: Treating system as metallic with density mixing treatment of electrons,
         and number of  SD  steps               :          1
         and number of  CG  steps               :          4
  
 total energy / atom convergence tol.           : 0.1000E-08   eV
 eigen-energy convergence tolerance             : 0.2465E-09   eV
 max force / atom convergence tol.              : ignored
 convergence tolerance window                   :          3   cycles
 max. number of SCF cycles                      :         50
 number of fixed-spin iterations                :         10
 smearing scheme                                : Gaussian
 smearing width                                 : 0.2000       eV
 Fermi energy convergence tolerance             : 0.2721E-13   eV
 periodic dipole correction                     : NONE

 ************************** Density Mixing Parameters **************************
  
 density-mixing scheme                          : Broyden
 max. length of mixing history                  :         20
 charge density mixing amplitude                : 0.8000    
 cut-off energy for mixing                      :  816.3       eV

 *********************** Population Analysis Parameters ************************
  
 Population analysis with cutoff                :  3.000       A

 ************************ Magnetic Resonance Parameters ************************
  
 Magnetic Resonance Property                    : Chemical Shielding + EFG
 Position Operator Method                       : crystal
 max. number of MagRes CG steps                 :        250
 convergence tolerance window                   :          2   cycles
 energy convergence tolerance                   : 0.1000E-11   eV
 band convergence tolerance                     : 0.1000E-08   eV

 *******************************************************************************
  
 
                           -------------------------------
                                      Unit Cell
                           -------------------------------
        Real Lattice(A)                      Reciprocal Lattice(1/A)
  10.9072442   0.0017932  -0.0018201        0.5760562  -0.0000947   0.0000962
   0.0017938  10.9100427   0.0012728       -0.0000947   0.5759084  -0.0000672
  -0.0018209   0.0012725  10.9099601        0.0000961  -0.0000672   0.5759128
 
                       Lattice parameters(A)       Cell Angles
                    a =   10.907244          alpha =   89.986635
                    b =   10.910043          beta  =   90.019123
                    c =   10.909960          gamma =   89.981161
 
                       Current cell volume = 1298.268796       A**3
 
                           -------------------------------
                                     Cell Contents
                           -------------------------------
                         Total number of ions in cell =   88
                      Total number of species in cell =    4
                        Max number of any one species =   56
 
            xxxxxxxxxxxxxxxxxxxxxxxxxxxxxxxxxxxxxxxxxxxxxxxxxxxxxxxxxxxx
            x  Element    Atom        Fractional coordinates of atoms  x
            x            Number           u          v          w      x
            x----------------------------------------------------------x
            x  O            1         0.125045   0.124759   0.124966   x 
            x  O            2         0.625107   0.124957   0.624913   x 
            x  O            3         0.125040   0.625092   0.624928   x 
            x  O            4         0.625080   0.625013   0.124926   x 
            x  O            5         0.874920   0.374919   0.375003   x 
            x  O            6         0.874890   0.874896   0.874948   x 
            x  O            7         0.374955   0.374961   0.874743   x 
            x  O            8         0.374966   0.874911   0.375086   x 
            x  O            9         0.420883   0.126403   0.125413   x 
            x  O           10         0.330525   0.124308   0.624274   x 
            x  O           11         0.830365   0.625737   0.625795   x 
            x  O           12         0.920486   0.624485   0.124441   x 
            x  O           13         0.125596   0.419517   0.124999   x 
            x  O           14         0.624138   0.329149   0.125483   x 
            x  O           15         0.624918   0.829083   0.625782   x 
            x  O           16         0.124866   0.920993   0.624199   x 
            x  O           17         0.124528   0.124725   0.421074   x 
            x  O           18         0.126075   0.624897   0.329286   x 
            x  O           19         0.624957   0.625838   0.828834   x 
            x  O           20         0.625550   0.124452   0.919552   x 
            x  O           21         0.875055   0.669588   0.374735   x 
            x  O           22         0.875415   0.578845   0.876051   x 
            x  O           23         0.374603   0.080264   0.875631   x 
            x  O           24         0.375069   0.170590   0.374415   x 
            x  O           25         0.170432   0.374831   0.373725   x 
            x  O           26         0.079150   0.875140   0.375937   x 
            x  O           27         0.579174   0.874533   0.874395   x 
            x  O           28         0.669716   0.375776   0.875843   x 
            x  O           29         0.875867   0.375496   0.079137   x 
            x  O           30         0.374399   0.375003   0.169503   x 
            x  O           31         0.375135   0.874192   0.670996   x 
            x  O           32         0.875079   0.875780   0.579083   x 
            x  O           33         0.669620   0.875783   0.375738   x 
            x  O           34         0.079120   0.375421   0.876411   x 
            x  O           35         0.375478   0.671061   0.874713   x 
            x  O           36         0.875038   0.078823   0.375841   x 
            x  O           37         0.874601   0.374404   0.669529   x 
            x  O           38         0.374836   0.875278   0.080466   x 
            x  O           39         0.125160   0.330488   0.625302   x 
            x  O           40         0.625399   0.919524   0.124410   x 
            x  O           41         0.920828   0.124402   0.624551   x 
            x  O           42         0.329571   0.623721   0.124830   x 
            x  O           43         0.124922   0.624400   0.920592   x 
            x  O           44         0.624592   0.126036   0.328852   x 
            x  O           45         0.420846   0.625943   0.625155   x 
            x  O           46         0.830269   0.125846   0.125772   x 
            x  O           47         0.125396   0.125638   0.830281   x 
            x  O           48         0.624942   0.624745   0.419600   x 
            x  O           49         0.874452   0.169543   0.874447   x 
            x  O           50         0.373928   0.579281   0.374901   x 
            x  O           51         0.169481   0.874266   0.874301   x 
            x  O           52         0.579509   0.374453   0.374494   x 
            x  O           53         0.874550   0.874426   0.169315   x 
            x  O           54         0.374628   0.375517   0.580760   x 
            x  O           55         0.125378   0.830762   0.125504   x 
            x  O           56         0.625447   0.419333   0.624443   x 
            x  Zr           1         0.499865   0.499742   0.500001   x 
            x  Zr           2         0.249682   0.749867   0.000266   x 
            x  Zr           3         0.749670   0.000107   0.250092   x 
            x  Zr           4        -0.000155   0.249987   0.750328   x 
            x  Zr           5         0.750000   0.250187   0.000010   x 
            x  Zr           6         0.249998   0.000031   0.749940   x 
            x  Zr           7         0.000184   0.749948   0.249541   x 
            x  Zr           8         0.500132   0.000137  -0.000036   x 
            x  Zr           9         0.250314   0.250482   0.500039   x 
            x  Zr          10         0.750351   0.499999   0.750296   x 
            x  Zr          11         0.750017   0.750184   0.500065   x 
            x  Sn           1         0.250001   0.499887   0.249896   x 
            x  Sn           2         0.000812   0.500502   0.000816   x 
            x  Sn           3         0.499187   0.250799   0.250512   x 
            x  Sn           4         0.500095   0.750150   0.750050   x 
            x  Sn           5        -0.000085   0.000062   0.500142   x 
            x  La           1        -0.000055  -0.000088  -0.000016   x 
            x  La           2         0.749914   0.250363   0.500306   x 
            x  La           3         0.249969   0.499710   0.749686   x 
            x  La           4         0.500212   0.750147   0.249986   x 
            x  La           5         0.249994   0.749856   0.499848   x 
            x  La           6         0.749997   0.500384   0.250399   x 
            x  La           7         0.500053   0.249967   0.749911   x 
            x  La           8        -0.000229   0.499992   0.500148   x 
            x  La           9         0.750084   0.750313   0.000364   x 
            x  La          10         0.250030  -0.000306   0.249716   x 
            x  La          11         0.250007   0.249400  -0.000583   x 
            x  La          12         0.750001   0.000365   0.750364   x 
            x  La          13         0.500008   0.000137   0.499897   x 
            x  La          14        -0.000018   0.749902   0.750122   x 
            x  La          15        -0.000223   0.249647   0.249920   x 
            x  La          16         0.500214   0.499914  -0.000331   x 
            xxxxxxxxxxxxxxxxxxxxxxxxxxxxxxxxxxxxxxxxxxxxxxxxxxxxxxxxxxxx
 
 
                         No user defined ionic velocities
 
                           -------------------------------
                                   Details of Species
                           -------------------------------
 
                               Mass of species in AMU
                                    O   15.9994000
                                    Zr   91.2240000
                                    Sn  118.7100000
                                    La  138.9055000
 
                          Electric Quadrupole Moment (Barn)
                                    O   -0.0255800 Isotope 17
                                    Zr   -0.1760000 Isotope 91
                                    Sn    1.0000000 No Isotope Defined
                                    La    0.2000000 Isotope139
 
                          Files used for pseudopotentials:
                                    O 2|1.1|15|18|20|20:21(qc=7)
                                    Zr 3|2.1|7|8|9|40U:50:41:42
                                    Sn 3|2.2|7|8|9|50:51:42
                                    La 2|2.3|5|6|7|50U:60:51:52(qc=4.5)
 
                           -------------------------------
                              k-Points For BZ Sampling
                           -------------------------------
                       MP grid size for SCF calculation is  3  3  3
                            with an offset of   0.000  0.000  0.000
                       Number of kpoints used =            14
 
                           -------------------------------
                               Symmetry and Constraints
                           -------------------------------
 
                      Maximum deviation from symmetry =  0.00000         ANG
 
         There are no symmetry operations specified or generated for this cell
                      Number of ionic constraints     =           3
                      Point group of crystal =     1: C1, 1, 1
                      Space group of crystal =     1: P1, P 1
 
 
                         Centre of mass is constrained
             Set iprint > 1 for details of linear ionic constraints
 
                         Number of cell constraints= 0
                         Cell constraints are:  1 2 3 4 5 6
 
                         External pressure/stress (GPa)
                          0.00000   0.00000   0.00000
                                    0.00000   0.00000
                                              0.00000
  
+---------------- MEMORY AND SCRATCH DISK ESTIMATES PER PROCESS --------------+
|                                                     Memory          Disk    |
| Baseline code, static data and system overhead      453.0 MB         0.0 MB |
| BLAS internal memory storage                          0.0 MB         0.0 MB |
| Model and support data                              279.9 MB         0.0 MB |
| Electronic energy minimisation requirements          67.4 MB         0.0 MB |
| Force calculation requirements                        4.0 MB         0.0 MB |
| Stress calculation requirements                       4.8 MB         0.0 MB |
|                                               ----------------------------- |
| Approx. total storage required per process          800.3 MB         0.0 MB |
|                                                                             |
| Requirements will fluctuate during execution and may exceed these estimates |
+-----------------------------------------------------------------------------+
Calculating finite basis set correction with  3 cut-off energies.
Calculating total energy with cut-off of  806.342eV.
------------------------------------------------------------------------ <-- SCF
SCF loop      Energy           Fermi           Energy gain       Timer   <-- SCF
                               energy          per atom          (sec)   <-- SCF
------------------------------------------------------------------------ <-- SCF
Initial  -5.33928779E+004  0.00000000E+000                        41.91  <-- SCF
      1  -6.22337104E+004  7.85066150E+000   1.00464005E+002      59.86  <-- SCF
      2  -6.48444045E+004  7.32867271E+000   2.96669781E+001      72.12  <-- SCF
      3  -6.49229741E+004  7.04338009E+000   8.92836259E-001      85.62  <-- SCF
      4  -6.49206528E+004  7.78293077E+000  -2.63781495E-002     101.52  <-- SCF
      5  -6.48094566E+004  7.54272134E+000  -1.26359325E+000     117.58  <-- SCF
      6  -6.48112554E+004  7.46279125E+000   2.04409989E-002     137.81  <-- SCF
      7  -6.48110280E+004  7.52875132E+000  -2.58364619E-003     154.70  <-- SCF
      8  -6.48110812E+004  7.53294736E+000   6.04225411E-004     175.02  <-- SCF
      9  -6.48111002E+004  7.53665644E+000   2.15445106E-004     193.53  <-- SCF
     10  -6.48111024E+004  7.53443540E+000   2.50002395E-005     211.20  <-- SCF
     11  -6.48111016E+004  7.53677877E+000  -8.96429450E-006     229.32  <-- SCF
     12  -6.48111019E+004  7.53740644E+000   4.15044085E-006     248.79  <-- SCF
     13  -6.48111020E+004  7.53739889E+000   5.70783955E-007     266.39  <-- SCF
     14  -6.48111020E+004  7.53734529E+000  -1.45457146E-008     282.67  <-- SCF
     15  -6.48111020E+004  7.53726037E+000   6.32509802E-009     299.30  <-- SCF
     16  -6.48111020E+004  7.53714574E+000  -4.93636349E-009     313.67  <-- SCF
     17  -6.48111020E+004  7.53709023E+000   3.74322735E-010     327.47  <-- SCF
     18  -6.48111020E+004  7.53706422E+000  -4.51240292E-010     339.26  <-- SCF
------------------------------------------------------------------------ <-- SCF
 
Final energy, E             =  -64811.10199271     eV
Final free energy (E-TS)    =  -64811.10199271     eV
(energies not corrected for finite basis set)
 
NB est. 0K energy (E-0.5TS)      =  -64811.10199271     eV
 
Calculating total energy with cut-off of  811.342eV.
------------------------------------------------------------------------ <-- SCF
SCF loop      Energy           Fermi           Energy gain       Timer   <-- SCF
                               energy          per atom          (sec)   <-- SCF
------------------------------------------------------------------------ <-- SCF
Initial  -6.48111020E+004  0.00000000E+000                       343.08  <-- SCF
      1  -6.48111044E+004  7.53694703E+000   2.77989736E-005     357.11  <-- SCF
      2  -6.48111044E+004  7.53694703E+000   3.37621670E-010     369.41  <-- SCF
      3  -6.48111044E+004  7.53699017E+000   1.58668123E-008     383.26  <-- SCF
      4  -6.48111044E+004  7.53699433E+000  -3.02889245E-010     395.54  <-- SCF
      5  -6.48111044E+004  7.53700762E+000  -4.20445146E-010     406.19  <-- SCF
------------------------------------------------------------------------ <-- SCF
 
Final energy, E             =  -64811.10444032     eV
Final free energy (E-TS)    =  -64811.10444032     eV
(energies not corrected for finite basis set)
 
NB est. 0K energy (E-0.5TS)      =  -64811.10444032     eV
 
Calculating total energy with cut-off of  816.342eV.
------------------------------------------------------------------------ <-- SCF
SCF loop      Energy           Fermi           Energy gain       Timer   <-- SCF
                               energy          per atom          (sec)   <-- SCF
------------------------------------------------------------------------ <-- SCF
Initial  -6.48111044E+004  0.00000000E+000                       409.93  <-- SCF
      1  -6.48111074E+004  7.53710693E+000   3.30838220E-005     423.94  <-- SCF
      2  -6.48111074E+004  7.53710693E+000   3.29606495E-010     436.15  <-- SCF
      3  -6.48111074E+004  7.53705545E+000   2.02170837E-008     449.52  <-- SCF
      4  -6.48111074E+004  7.53706194E+000  -8.83075423E-011     461.93  <-- SCF
      5  -6.48111074E+004  7.53704840E+000  -4.89347527E-010     472.39  <-- SCF
------------------------------------------------------------------------ <-- SCF
 
Final energy, E             =  -64811.10735340     eV
Final free energy (E-TS)    =  -64811.10735340     eV
(energies not corrected for finite basis set)
 
NB est. 0K energy (E-0.5TS)      =  -64811.10735340     eV
 
 For future reference: finite basis dEtot/dlog(Ecut) =      -0.437176eV
 Total energy corrected for finite basis set =  -64811.107322 eV
 
  =====================================================================
  +       Calculation of Nuclear Magnetic Resonance Parameters        +
  + ================================================================= +
 
  Starting Calculation of Electric Field Gradient Tensors         |<-- EFG
  +---------------- MEMORY AND SCRATCH DISK ESTIMATES PER PROCESS --------------+
  |                                                     Memory          Disk    |
  | Model and support data                              281.1 MB         0.0 MB |
  | NMR EFG calculation requirements                     65.0 MB         0.0 MB |
  |                                               ----------------------------- |
  | Approx. total storage required per process          346.1 MB         0.0 MB |
  |                                                                             |
  | Requirements will fluctuate during execution and may exceed these estimates |
  +-----------------------------------------------------------------------------+
  Total Time for EFG Tensors                      49.24 sec       |<-- EFG
 
  Starting Calculation of Chemical Shielding Tensors              |<-- NMR
  +---------------- MEMORY AND SCRATCH DISK ESTIMATES PER PROCESS --------------+
  |                                                     Memory          Disk    |
  | Model and support data                              281.1 MB         0.0 MB |
  | NMR chemical shift calculation requirements         142.3 MB         0.0 MB |
  |                                               ----------------------------- |
  | Approx. total storage required per process          423.5 MB         0.0 MB |
  |                                                                             |
  | Requirements will fluctuate during execution and may exceed these estimates |
  +-----------------------------------------------------------------------------+
  Starting k-point:   1 of   1                                    |<-- NMR
  Total Time for step 1 of 6:                    418.32 sec       |<-- NMR
  Total Time for step 2 of 6:                    417.70 sec       |<-- NMR
  Total Time for step 3 of 6:                    417.88 sec       |<-- NMR
  Total Time for step 4 of 6:                    416.08 sec       |<-- NMR
  Total Time for step 5 of 6:                    417.82 sec       |<-- NMR
  Total Time for step 6 of 6:                    414.40 sec       |<-- NMR
  Total Time for Chemical Shielding Tensors     3779.35 sec       |<-- NMR
 
  ========================================================================
  |           Chemical Shielding and Electric Field Gradient Tensors     |
  |----------------------------------------------------------------------|
  |     Nucleus                Shielding tensor             EFG Tensor   |
  |  Species       Ion    Iso(ppm)   Aniso(ppm)  Asym    Cq(MHz)    Eta  |
  |    O           1     -316.98     -11.63      0.26   3.827E-02   0.95 |
  |    O           2     -316.14       7.91      0.46  -5.928E-02   0.86 |
  |    O           3     -315.53      -2.96      0.25   5.109E-02   0.95 |
  |    O           4     -316.45      -6.35      0.62   5.961E-02   0.85 |
  |    O           5     -316.44      -6.47      0.57   5.787E-02   0.88 |
  |    O           6     -316.09       7.84      0.38  -5.942E-02   0.83 |
  |    O           7     -316.93     -12.07      0.26   4.015E-02   0.88 |
  |    O           8     -315.54      -3.18      0.52   5.125E-02   0.87 |
  |    O           9      -86.54      76.66      0.17  -3.231E+00   0.12 |
  |    O          10     -162.49     153.43      0.83   1.055E+00   0.84 |
  |    O          11     -161.72     152.35      0.83   1.074E+00   0.83 |
  |    O          12      -89.91      86.74      0.10  -3.272E+00   0.12 |
  |    O          13       -3.93      68.01      0.59   3.895E+00   0.83 |
  |    O          14      -84.40      86.56      0.30  -3.141E+00   0.10 |
  |    O          15      -84.86      93.85      0.29  -3.142E+00   0.11 |
  |    O          16      -84.96      93.65      0.28  -3.159E+00   0.11 |
  |    O          17      -84.55      88.66      0.38  -3.110E+00   0.10 |
  |    O          18      -89.94      92.68      0.26  -3.171E+00   0.12 |
  |    O          19      -84.89      93.80      0.29  -3.160E+00   0.12 |
  |    O          20     -164.61     154.92      0.81   1.053E+00   0.91 |
  |    O          21     -163.24     147.40      0.82   1.071E+00   0.82 |
  |    O          22      -87.78      96.09      0.30  -3.108E+00   0.12 |
  |    O          23     -164.07     156.84      0.80   1.070E+00   0.88 |
  |    O          24      -87.09      92.11      0.24  -3.183E+00   0.12 |
  |    O          25      -87.74      87.14      0.15  -3.176E+00   0.10 |
  |    O          26      -87.94      90.94      0.24  -3.189E+00   0.11 |
  |    O          27      -88.08      85.46      0.11  -3.229E+00   0.13 |
  |    O          28     -162.04     154.14      0.84   1.090E+00   0.81 |
  |    O          29      -84.23      87.01      0.30  -3.144E+00   0.10 |
  |    O          30       -4.17      68.04      0.59   3.892E+00   0.83 |
  |    O          31      -84.80      93.28      0.28  -3.163E+00   0.11 |
  |    O          32      -85.16      94.48      0.29  -3.138E+00   0.11 |
  |    O          33     -161.62     153.87      0.83   1.081E+00   0.82 |
  |    O          34      -86.61      77.90      0.17  -3.230E+00   0.11 |
  |    O          35      -84.78      90.30      0.37  -3.107E+00   0.10 |
  |    O          36      -85.03      94.03      0.29  -3.158E+00   0.11 |
  |    O          37     -163.52     155.39      0.81   1.078E+00   0.87 |
  |    O          38     -161.91     152.34      0.83   1.071E+00   0.81 |
  |    O          39     -161.86     152.59      0.83   1.072E+00   0.81 |
  |    O          40     -163.41     155.59      0.80   1.077E+00   0.87 |
  |    O          41      -88.15      84.60      0.11  -3.227E+00   0.13 |
  |    O          42      -87.74      86.86      0.15  -3.174E+00   0.10 |
  |    O          43      -87.18      93.78      0.23  -3.180E+00   0.11 |
  |    O          44      -87.79      95.28      0.31  -3.107E+00   0.12 |
  |    O          45      -87.91      92.07      0.23  -3.189E+00   0.10 |
  |    O          46     -162.13     152.12      0.85   1.079E+00   0.82 |
  |    O          47     -164.07     157.33      0.80   1.069E+00   0.88 |
  |    O          48     -163.23     148.14      0.81   1.072E+00   0.82 |
  |    O          49     -164.71     155.85      0.81   1.058E+00   0.91 |
  |    O          50      -89.90      92.75      0.26  -3.169E+00   0.12 |
  |    O          51     -162.53     153.28      0.83   1.053E+00   0.84 |
  |    O          52      -89.85      85.47      0.10  -3.271E+00   0.13 |
  |    O          53     -164.73     155.34      0.79   1.041E+00   0.90 |
  |    O          54     -164.76     157.47      0.85   1.065E+00   0.89 |
  |    O          55     -164.89     157.42      0.85   1.063E+00   0.89 |
  |    O          56     -164.74     155.09      0.79   1.038E+00   0.91 |
  |    Zr          1     1627.74    -126.15      0.11  -3.849E+01   0.08 |
  |    Zr          2     1625.77    -127.36      0.15  -3.835E+01   0.04 |
  |    Zr          3     1631.89    -127.04      0.04  -3.924E+01   0.03 |
  |    Zr          4     1632.87    -130.05      0.17  -3.940E+01   0.10 |
  |    Zr          5     1632.31    -129.36      0.08  -3.914E+01   0.06 |
  |    Zr          6     1631.60    -127.12      0.02  -3.937E+01   0.01 |
  |    Zr          7     1627.23    -126.08      0.10  -3.850E+01   0.07 |
  |    Zr          8     1633.20    -130.01      0.17  -3.939E+01   0.11 |
  |    Zr          9     1625.79    -127.45      0.14  -3.837E+01   0.04 |
  |    Zr         10     1631.78    -126.95      0.03  -3.924E+01   0.02 |
  |    Zr         11     1631.42    -124.90      0.02  -3.925E+01   0.03 |
  |    Sn          1     3256.53     -53.63      0.10   1.278E+02   0.00 |
  |    Sn          2     3252.25     -48.26      0.23   1.286E+02   0.12 |
  |    Sn          3     3252.26     -48.27      0.24   1.286E+02   0.12 |
  |    Sn          4     3245.81     -36.04      0.20   1.291E+02   0.05 |
  |    Sn          5     3245.33     -36.89      0.21   1.290E+02   0.05 |
  |    La          1     4801.15     952.03      0.01  -8.663E+01   0.02 |
  |    La          2     4702.18     772.93      0.05  -8.164E+01   0.07 |
  |    La          3     4707.61     771.52      0.04  -8.318E+01   0.05 |
  |    La          4     4757.57     855.33      0.04  -8.465E+01   0.05 |
  |    La          5     4654.26     662.35      0.01  -8.016E+01   0.01 |
  |    La          6     4707.50     766.50      0.06  -8.283E+01   0.09 |
  |    La          7     4801.16     952.50      0.02  -8.670E+01   0.02 |
  |    La          8     4757.51     854.37      0.04  -8.455E+01   0.05 |
  |    La          9     4702.22     774.11      0.05  -8.171E+01   0.07 |
  |    La         10     4707.39     768.97      0.04  -8.304E+01   0.05 |
  |    La         11     4651.15     631.28      0.00  -7.749E+01   0.03 |
  |    La         12     4704.12     777.34      0.05  -8.178E+01   0.06 |
  |    La         13     4711.08     784.12      0.11  -8.214E+01   0.10 |
  |    La         14     4711.30     784.71      0.10  -8.220E+01   0.10 |
  |    La         15     4663.27     659.37      0.09  -7.919E+01   0.12 |
  |    La         16     4663.40     660.35      0.09  -7.916E+01   0.12 |
  ========================================================================
 
 *********************** Forces ***********************
 *                                                    *
 *            Cartesian components (eV/A)             *
 * -------------------------------------------------- *
 *                   x            y            z      *
 *                                                    *
 * O         1     -0.01644     -0.01667     -0.01186 *
 * O         2     -0.01323      0.00514      0.00692 *
 * O         3     -0.01831     -0.00715      0.00288 *
 * O         4     -0.00507      0.00995      0.00556 *
 * O         5      0.00579      0.00667      0.01044 *
 * O         6      0.01289      0.00647      0.00706 *
 * O         7      0.01637     -0.00949     -0.01631 *
 * O         8      0.02037      0.00126     -0.00537 *
 * O         9      0.00366      0.00726      0.01986 *
 * O        10      0.00009      0.01255      0.00985 *
 * O        11     -0.00963     -0.00909      0.00054 *
 * O        12      0.01048     -0.01546     -0.02430 *
 * O        13     -0.00218     -0.00062      0.00347 *
 * O        14     -0.01606      0.00626      0.03351 *
 * O        15     -0.02258      0.00890      0.02684 *
 * O        16     -0.02215      0.00095     -0.01558 *
 * O        17     -0.01796     -0.01787      0.00369 *
 * O        18      0.01323     -0.01832     -0.00670 *
 * O        19     -0.01037      0.02488     -0.00173 *
 * O        20     -0.00568      0.00051      0.00999 *
 * O        21      0.00451      0.01586     -0.00780 *
 * O        22      0.02127      0.00465      0.02299 *
 * O        23      0.00377     -0.01882     -0.01237 *
 * O        24      0.02840      0.00631     -0.02251 *
 * O        25     -0.00211      0.04003     -0.01885 *
 * O        26     -0.00946      0.00746      0.00862 *
 * O        27     -0.00091     -0.01547     -0.01669 *
 * O        28      0.00912     -0.00543     -0.02002 *
 * O        29      0.01760      0.03847      0.00238 *
 * O        30      0.00096      0.00477     -0.00200 *
 * O        31      0.02170     -0.01648      0.00286 *
 * O        32      0.02283      0.02857      0.00880 *
 * O        33      0.00457     -0.00227     -0.00894 *
 * O        34     -0.00340      0.02308      0.01096 *
 * O        35      0.02007      0.00001     -0.02243 *
 * O        36      0.00863     -0.00550      0.02621 *
 * O        37     -0.00072      0.00171      0.02247 *
 * O        38     -0.00318     -0.00664     -0.01200 *
 * O        39      0.00136     -0.00846      0.00249 *
 * O        40      0.00148      0.01368      0.00353 *
 * O        41      0.00247     -0.01530     -0.00943 *
 * O        42      0.00234     -0.02030      0.03723 *
 * O        43     -0.03140     -0.02846      0.00399 *
 * O        44     -0.01775      0.01574      0.00655 *
 * O        45      0.00703      0.01168      0.01251 *
 * O        46     -0.01374     -0.02014     -0.00731 *
 * O        47     -0.00455     -0.01053     -0.01694 *
 * O        48     -0.00472     -0.00224      0.01374 *
 * O        49      0.00660      0.01268     -0.00015 *
 * O        50     -0.01278     -0.00493     -0.01655 *
 * O        51      0.00176      0.00771      0.00942 *
 * O        52     -0.01167     -0.01906     -0.01259 *
 * O        53      0.00176     -0.00131      0.01288 *
 * O        54      0.01509     -0.00120     -0.01103 *
 * O        55     -0.01328     -0.01672     -0.00881 *
 * O        56     -0.00220      0.01474      0.00478 *
 * Zr        1      0.00491      0.02458     -0.00083 *
 * Zr        2      0.01093      0.00887     -0.01064 *
 * Zr        3      0.00582      0.02162     -0.00376 *
 * Zr        4      0.01185     -0.00013     -0.00868 *
 * Zr        5     -0.00184     -0.00034      0.03558 *
 * Zr        6      0.00038     -0.01742     -0.00717 *
 * Zr        7      0.00405      0.00542      0.01384 *
 * Zr        8     -0.01671     -0.00414      0.01059 *
 * Zr        9     -0.01106     -0.00066     -0.01853 *
 * Zr       10      0.00128      0.01458     -0.00568 *
 * Zr       11      0.00850     -0.00391      0.01163 *
 * Sn        1      0.00069     -0.02171     -0.02057 *
 * Sn        2     -0.00273     -0.03350      0.00517 *
 * Sn        3      0.00299      0.00028     -0.02929 *
 * Sn        4     -0.00696     -0.00986     -0.00396 *
 * Sn        5      0.01276      0.00127     -0.01227 *
 * La        1     -0.00100      0.00703      0.00686 *
 * La        2      0.01027     -0.01220     -0.01123 *
 * La        3      0.00154      0.01137      0.01224 *
 * La        4     -0.01307     -0.00909     -0.00368 *
 * La        5     -0.00313      0.00851      0.00502 *
 * La        6     -0.00217     -0.01614     -0.01122 *
 * La        7     -0.00037      0.00134      0.00705 *
 * La        8      0.00577      0.00035     -0.00769 *
 * La        9     -0.01235     -0.00989     -0.01233 *
 * La       10     -0.00106      0.01605      0.01558 *
 * La       11      0.00424      0.01725      0.02251 *
 * La       12      0.00000     -0.01580     -0.01722 *
 * La       13     -0.00504     -0.00788      0.00196 *
 * La       14      0.00047      0.00415     -0.01514 *
 * La       15      0.00734     -0.00273      0.00142 *
 * La       16     -0.01105     -0.00135      0.00568 *
 *                                                    *
 ******************************************************
 
 ***************** Stress Tensor *****************
 *                                               *
 *          Cartesian components (GPa)           *
 * --------------------------------------------- *
 *             x             y             z     *
 *                                               *
 *  x      0.018847     -0.001312      0.001154  *
 *  y     -0.001312      0.032377      0.063208  *
 *  z      0.001154      0.063208      0.029244  *
 *                                               *
 *  Pressure:   -0.0268                          *
 *                                               *
 *************************************************
 
 Pseudo atomic calculation performed for O 2s2 2p4
 
 Converged in 39 iterations to a total energy of -432.6554 eV
 
 
 Pseudo atomic calculation performed for Zr 4s2 4p6 4d2 5s2
 
 Converged in 38 iterations to a total energy of -1285.4931 eV
 
 
 Pseudo atomic calculation performed for Sn 4d10 5s2 5p2
 
 Converged in 48 iterations to a total energy of -2044.5414 eV
 
 
 Pseudo atomic calculation performed for La 5s2 5p6 5d1 6s2
 
 Converged in 34 iterations to a total energy of -968.0372 eV
 
Charge spilling parameter for spin component 1 = 0.23%
 
     Atomic Populations (Mulliken)
     -----------------------------
Species   Ion     s      p      d      f     Total  Charge (e)
==============================================================
  O        1     1.87   5.00   0.00   0.00   6.87    -0.87
  O        2     1.87   5.00   0.00   0.00   6.87    -0.87
  O        3     1.87   5.00   0.00   0.00   6.87    -0.87
  O        4     1.87   5.00   0.00   0.00   6.87    -0.87
  O        5     1.87   5.00   0.00   0.00   6.87    -0.87
  O        6     1.87   5.00   0.00   0.00   6.87    -0.87
  O        7     1.87   5.00   0.00   0.00   6.87    -0.87
  O        8     1.87   5.00   0.00   0.00   6.87    -0.87
  O        9     1.87   4.98   0.00   0.00   6.85    -0.85
  O       10     1.86   4.94   0.00   0.00   6.80    -0.80
  O       11     1.86   4.94   0.00   0.00   6.80    -0.80
  O       12     1.87   4.99   0.00   0.00   6.85    -0.85
  O       13     1.88   5.02   0.00   0.00   6.90    -0.90
  O       14     1.87   4.98   0.00   0.00   6.85    -0.85
  O       15     1.87   4.99   0.00   0.00   6.85    -0.85
  O       16     1.87   4.99   0.00   0.00   6.85    -0.85
  O       17     1.87   4.98   0.00   0.00   6.85    -0.85
  O       18     1.87   4.99   0.00   0.00   6.85    -0.85
  O       19     1.87   4.99   0.00   0.00   6.85    -0.85
  O       20     1.86   4.94   0.00   0.00   6.80    -0.80
  O       21     1.86   4.94   0.00   0.00   6.80    -0.80
  O       22     1.87   4.98   0.00   0.00   6.85    -0.85
  O       23     1.86   4.94   0.00   0.00   6.80    -0.80
  O       24     1.87   4.99   0.00   0.00   6.85    -0.85
  O       25     1.87   4.99   0.00   0.00   6.85    -0.85
  O       26     1.87   4.98   0.00   0.00   6.85    -0.85
  O       27     1.87   4.98   0.00   0.00   6.85    -0.85
  O       28     1.86   4.94   0.00   0.00   6.80    -0.80
  O       29     1.87   4.98   0.00   0.00   6.85    -0.85
  O       30     1.88   5.02   0.00   0.00   6.90    -0.90
  O       31     1.87   4.99   0.00   0.00   6.85    -0.85
  O       32     1.87   4.98   0.00   0.00   6.85    -0.85
  O       33     1.86   4.94   0.00   0.00   6.80    -0.80
  O       34     1.87   4.98   0.00   0.00   6.85    -0.85
  O       35     1.87   4.98   0.00   0.00   6.85    -0.85
  O       36     1.87   4.99   0.00   0.00   6.85    -0.85
  O       37     1.86   4.94   0.00   0.00   6.80    -0.80
  O       38     1.86   4.94   0.00   0.00   6.80    -0.80
  O       39     1.86   4.94   0.00   0.00   6.80    -0.80
  O       40     1.86   4.94   0.00   0.00   6.80    -0.80
  O       41     1.87   4.98   0.00   0.00   6.85    -0.85
  O       42     1.87   4.99   0.00   0.00   6.85    -0.85
  O       43     1.87   4.99   0.00   0.00   6.85    -0.85
  O       44     1.87   4.98   0.00   0.00   6.85    -0.85
  O       45     1.87   4.98   0.00   0.00   6.85    -0.85
  O       46     1.86   4.94   0.00   0.00   6.80    -0.80
  O       47     1.86   4.94   0.00   0.00   6.80    -0.80
  O       48     1.86   4.94   0.00   0.00   6.80    -0.80
  O       49     1.86   4.94   0.00   0.00   6.80    -0.80
  O       50     1.87   4.99   0.00   0.00   6.85    -0.85
  O       51     1.86   4.94   0.00   0.00   6.80    -0.80
  O       52     1.87   4.99   0.00   0.00   6.85    -0.85
  O       53     1.86   4.94   0.00   0.00   6.80    -0.80
  O       54     1.86   4.94   0.00   0.00   6.80    -0.80
  O       55     1.86   4.94   0.00   0.00   6.80    -0.80
  O       56     1.86   4.94   0.00   0.00   6.80    -0.80
  Zr       1     2.38   6.49   1.92   0.00  10.80     1.20
  Zr       2     2.37   6.49   1.92   0.00  10.79     1.21
  Zr       3     2.37   6.48   1.93   0.00  10.78     1.22
  Zr       4     2.38   6.48   1.93   0.00  10.79     1.21
  Zr       5     2.37   6.48   1.93   0.00  10.78     1.22
  Zr       6     2.37   6.48   1.93   0.00  10.78     1.22
  Zr       7     2.38   6.49   1.92   0.00  10.80     1.20
  Zr       8     2.38   6.48   1.93   0.00  10.79     1.21
  Zr       9     2.37   6.49   1.92   0.00  10.79     1.21
  Zr      10     2.37   6.48   1.93   0.00  10.78     1.22
  Zr      11     2.37   6.48   1.93   0.00  10.77     1.23
  Sn       1     1.05   1.32  10.00   0.00  12.37     1.63
  Sn       2     1.05   1.32  10.00   0.00  12.37     1.63
  Sn       3     1.05   1.32  10.00   0.00  12.37     1.63
  Sn       4     1.05   1.32  10.00   0.00  12.37     1.63
  Sn       5     1.05   1.32  10.00   0.00  12.37     1.63
  La       1     2.02   6.13   1.19   0.00   9.35     1.65
  La       2     2.07   6.16   1.19   0.00   9.42     1.58
  La       3     2.06   6.16   1.19   0.00   9.42     1.58
  La       4     2.04   6.15   1.19   0.00   9.39     1.61
  La       5     2.08   6.17   1.19   0.00   9.45     1.55
  La       6     2.06   6.16   1.19   0.00   9.41     1.59
  La       7     2.02   6.13   1.19   0.00   9.35     1.65
  La       8     2.04   6.15   1.19   0.00   9.39     1.61
  La       9     2.07   6.16   1.19   0.00   9.42     1.58
  La      10     2.06   6.16   1.19   0.00   9.42     1.58
  La      11     2.10   6.18   1.19   0.00   9.48     1.52
  La      12     2.05   6.16   1.19   0.00   9.40     1.60
  La      13     2.04   6.17   1.19   0.00   9.40     1.60
  La      14     2.04   6.17   1.19   0.00   9.40     1.60
  La      15     2.07   6.18   1.19   0.00   9.44     1.56
  La      16     2.07   6.18   1.19   0.00   9.44     1.56
==============================================================
 
            Bond              Population      Length (A)
============================================================
         O 12 -- Sn 2              0.35        2.10173
         O 52 -- Sn 3              0.35        2.10189
         O 27 -- Sn 4              0.35        2.10397
         O 43 -- Sn 2              0.35        2.10408
         O 24 -- Sn 3              0.35        2.10410
         O 41 -- Sn 5              0.35        2.10417
         O 36 -- Sn 5              0.34        2.10479
         O 19 -- Sn 4              0.34        2.10486
         O 31 -- Sn 4              0.34        2.10486
         O 16 -- Sn 5              0.34        2.10496
         O 15 -- Sn 4              0.34        2.10589
         O 34 -- Sn 2              0.35        2.10589
         O 9  -- Sn 3              0.35        2.10594
         O 32 -- Sn 5              0.34        2.10611
         O 50 -- Sn 1              0.34        2.10652
         O 18 -- Sn 1              0.34        2.10654
         O 25 -- Sn 1              0.35        2.10726
         O 42 -- Sn 1              0.35        2.10736
         O 45 -- Sn 4              0.34        2.10737
         O 26 -- Sn 5              0.34        2.10748
         O 17 -- Sn 5              0.34        2.10779
         O 35 -- Sn 4              0.34        2.10791
         O 29 -- Sn 2              0.35        2.10923
         O 14 -- Sn 3              0.35        2.10955
         O 22 -- Sn 2              0.34        2.10986
         O 44 -- Sn 3              0.34        2.10991
         O 13 -- Sn 2              0.33        2.11333
         O 30 -- Sn 1              0.34        2.11348
         O 13 -- Sn 1              0.34        2.11350
         O 30 -- Sn 3              0.33        2.11360
         O 47 -- Zr 4              0.43        2.11522
         O 55 -- Zr 7              0.42        2.11536
         O 54 -- Zr 9              0.42        2.11564
         O 49 -- Zr 4              0.43        2.11566
         O 23 -- Zr 8              0.43        2.11572
         O 28 -- Zr 5              0.42        2.11586
         O 54 -- Zr 1              0.42        2.11672
         O 40 -- Zr 8              0.42        2.11685
         O 33 -- Zr 3              0.42        2.11705
         O 20 -- Zr 8              0.42        2.11705
         O 43 -- Zr 2              0.45        2.11709
         O 32 -- Zr 11             0.45        2.11719
         O 22 -- Zr 10             0.46        2.11734
         O 37 -- Zr 4              0.42        2.11735
         O 33 -- Zr 11             0.42        2.11756
         O 15 -- Zr 11             0.45        2.11778
         O 55 -- Zr 2              0.42        2.11780
         O 53 -- Zr 7              0.43        2.11793
         O 56 -- Zr 1              0.43        2.11813
         O 46 -- Zr 5              0.42        2.11823
         O 28 -- Zr 10             0.42        2.11829
         O 44 -- Zr 3              0.46        2.11829
         O 16 -- Zr 6              0.45        2.11857
         O 11 -- Zr 10             0.42        2.11877
         O 36 -- Zr 3              0.45        2.11886
         O 31 -- Zr 6              0.45        2.11890
         O 19 -- Zr 10             0.45        2.11891
         O 10 -- Zr 6              0.42        2.11902
         O 40 -- Zr 3              0.43        2.11907
         O 11 -- Zr 11             0.42        2.11910
         O 24 -- Zr 9              0.45        2.11914
         O 37 -- Zr 10             0.43        2.11915
         O 48 -- Zr 1              0.42        2.11943
         O 12 -- Zr 7              0.45        2.11965
         O 51 -- Zr 2              0.43        2.11976
         O 47 -- Zr 6              0.43        2.11976
         O 23 -- Zr 6              0.43        2.11988
         O 39 -- Zr 9              0.43        2.11990
         O 49 -- Zr 5              0.43        2.11997
         O 10 -- Zr 9              0.43        2.12014
         O 46 -- Zr 3              0.42        2.12016
         O 51 -- Zr 6              0.42        2.12025
         O 20 -- Zr 5              0.43        2.12034
         O 38 -- Zr 8              0.42        2.12042
         O 25 -- Zr 9              0.45        2.12046
         O 42 -- Zr 2              0.45        2.12079
         O 21 -- Zr 7              0.42        2.12095
         O 27 -- Zr 8              0.46        2.12103
         O 52 -- Zr 1              0.45        2.12106
         O 35 -- Zr 2              0.45        2.12112
         O 29 -- Zr 5              0.45        2.12132
         O 50 -- Zr 1              0.45        2.12134
         O 18 -- Zr 7              0.45        2.12159
         O 39 -- Zr 4              0.42        2.12171
         O 14 -- Zr 5              0.45        2.12172
         O 38 -- Zr 2              0.43        2.12182
         O 21 -- Zr 11             0.43        2.12222
         O 45 -- Zr 1              0.46        2.12222
         O 41 -- Zr 4              0.46        2.12224
         O 48 -- Zr 11             0.43        2.12266
         O 17 -- Zr 9              0.45        2.12319
         O 26 -- Zr 7              0.45        2.12364
         O 53 -- Zr 3              0.43        2.12421
         O 34 -- Zr 4              0.46        2.12449
         O 56 -- Zr 10             0.43        2.12507
         O 9  -- Zr 8              0.46        2.12577
         O 7  -- La 3              0.18        2.35988
         O 1  -- La 10             0.18        2.35992
         O 2  -- La 12             0.17        2.36079
         O 6  -- La 12             0.17        2.36083
         O 8  -- La 5              0.17        2.36090
         O 3  -- La 5              0.17        2.36095
         O 6  -- La 9              0.17        2.36100
         O 2  -- La 2              0.17        2.36110
         O 5  -- La 6              0.18        2.36115
         O 4  -- La 6              0.18        2.36131
         O 5  -- La 2              0.16        2.36138
         O 4  -- La 9              0.16        2.36139
         O 6  -- La 14             0.19        2.36152
         O 7  -- La 7              0.19        2.36159
         O 3  -- La 3              0.18        2.36161
         O 1  -- La 1              0.19        2.36162
         O 2  -- La 13             0.19        2.36165
         O 8  -- La 10             0.18        2.36175
         O 4  -- La 4              0.19        2.36246
         O 2  -- La 7              0.20        2.36246
         O 3  -- La 14             0.17        2.36247
         O 5  -- La 8              0.19        2.36250
         O 8  -- La 13             0.17        2.36256
         O 6  -- La 1              0.20        2.36273
         O 1  -- La 15             0.18        2.36277
         O 8  -- La 4              0.19        2.36277
         O 7  -- La 16             0.18        2.36294
         O 3  -- La 8              0.19        2.36301
         O 1  -- La 11             0.16        2.36318
         O 7  -- La 11             0.16        2.36339
         O 5  -- La 15             0.17        2.36341
         O 4  -- La 16             0.17        2.36346
         O 53 -- La 9              0.12        2.65984
         O 47 -- La 11             0.12        2.66011
         O 56 -- La 2              0.12        2.66015
         O 23 -- La 11             0.12        2.66017
         O 46 -- La 15             0.13        2.66045
         O 28 -- La 16             0.13        2.66050
         O 54 -- La 3              0.13        2.66136
         O 55 -- La 10             0.13        2.66147
         O 49 -- La 12             0.11        2.66150
         O 20 -- La 12             0.11        2.66160
         O 40 -- La 9              0.12        2.66268
         O 37 -- La 2              0.12        2.66274
         O 10 -- La 13             0.13        2.66360
         O 51 -- La 14             0.13        2.66367
         O 11 -- La 14             0.13        2.66429
         O 33 -- La 13             0.13        2.66436
         O 39 -- La 3              0.13        2.66549
         O 38 -- La 10             0.13        2.66586
         O 21 -- La 6              0.12        2.66648
         O 48 -- La 6              0.12        2.66658
         O 21 -- La 8              0.14        2.67247
         O 48 -- La 4              0.14        2.67261
         O 55 -- La 1              0.13        2.67368
         O 18 -- La 5              0.17        2.67373
         O 54 -- La 7              0.13        2.67381
         O 50 -- La 5              0.17        2.67386
         O 38 -- La 4              0.14        2.67399
         O 39 -- La 8              0.14        2.67407
         O 42 -- La 16             0.18        2.67475
         O 25 -- La 15             0.18        2.67494
         O 37 -- La 8              0.14        2.67543
         O 40 -- La 4              0.14        2.67543
         O 53 -- La 1              0.14        2.67573
         O 9  -- La 11             0.18        2.67577
         O 56 -- La 7              0.14        2.67589
         O 34 -- La 11             0.18        2.67604
         O 30 -- La 11             0.23        2.67633
         O 13 -- La 11             0.23        2.67657
         O 26 -- La 5              0.18        2.67657
         O 45 -- La 5              0.18        2.67677
         O 12 -- La 9              0.17        2.67716
         O 52 -- La 2              0.17        2.67718
         O 20 -- La 7              0.13        2.67771
         O 49 -- La 1              0.13        2.67775
         O 30 -- La 16             0.24        2.67868
         O 33 -- La 4              0.13        2.67884
         O 11 -- La 8              0.13        2.67885
         O 13 -- La 15             0.24        2.67903
         O 14 -- La 16             0.18        2.67918
         O 10 -- La 7              0.13        2.67923
         O 29 -- La 15             0.18        2.67942
         O 51 -- La 1              0.13        2.67948
         O 52 -- La 6              0.18        2.67975
         O 12 -- La 6              0.18        2.67994
         O 23 -- La 7              0.13        2.68016
         O 47 -- La 1              0.13        2.68019
         O 24 -- La 13             0.17        2.68057
         O 43 -- La 14             0.17        2.68080
         O 24 -- La 10             0.18        2.68120
         O 43 -- La 3              0.18        2.68127
         O 41 -- La 12             0.17        2.68133
         O 27 -- La 12             0.17        2.68141
         O 16 -- La 5              0.18        2.68143
         O 31 -- La 5              0.18        2.68149
         O 17 -- La 15             0.18        2.68172
         O 35 -- La 16             0.18        2.68178
         O 27 -- La 9              0.18        2.68259
         O 41 -- La 2              0.18        2.68270
         O 28 -- La 7              0.12        2.68273
         O 46 -- La 1              0.13        2.68273
         O 32 -- La 12             0.17        2.68371
         O 15 -- La 12             0.17        2.68372
         O 44 -- La 2              0.17        2.68477
         O 22 -- La 9              0.17        2.68486
         O 19 -- La 9              0.17        2.68509
         O 36 -- La 2              0.17        2.68510
         O 36 -- La 15             0.18        2.68580
         O 19 -- La 16             0.18        2.68592
         O 44 -- La 13             0.18        2.68648
         O 22 -- La 14             0.18        2.68666
         O 45 -- La 3              0.18        2.68678
         O 26 -- La 10             0.18        2.68687
         O 32 -- La 14             0.18        2.68700
         O 15 -- La 13             0.18        2.68719
         O 34 -- La 3              0.18        2.68800
         O 9  -- La 10             0.18        2.68801
         O 16 -- La 14             0.18        2.68864
         O 31 -- La 13             0.18        2.68876
         O 35 -- La 3              0.18        2.68907
         O 17 -- La 10             0.18        2.68912
         O 50 -- La 4              0.19        2.68912
         O 18 -- La 8              0.19        2.68915
         O 42 -- La 4              0.18        2.68924
         O 25 -- La 8              0.18        2.68940
         O 14 -- La 6              0.18        2.68952
         O 29 -- La 6              0.18        2.68964
         O 18 -- O 50             -0.06        2.79316
         O 12 -- O 22             -0.06        2.79879
         O 31 -- O 45             -0.06        2.79895
         O 13 -- O 30             -0.05        2.79896
         O 16 -- O 26             -0.06        2.79910
         O 44 -- O 52             -0.06        2.79912
         O 30 -- O 42             -0.06        2.79968
         O 13 -- O 25             -0.06        2.79977
         O 13 -- O 34             -0.06        2.80066
         O 9  -- O 30             -0.06        2.80081
         O 15 -- O 27             -0.06        2.80234
         O 32 -- O 41             -0.06        2.80250
         O 20 -- O 49             -0.04        2.80288
         O 19 -- O 27             -0.06        2.80324
         O 36 -- O 41             -0.06        2.80344
         O 12 -- O 29             -0.06        2.80389
         O 34 -- O 43             -0.06        2.80391
         O 14 -- O 52             -0.06        2.80411
         O 9  -- O 24             -0.06        2.80417
         O 40 -- O 53             -0.04        2.80452
         O 37 -- O 56             -0.04        2.80457
         O 23 -- O 47             -0.04        2.80648
         O 38 -- O 55             -0.04        2.80754
         O 39 -- O 54             -0.04        2.80767
         O 22 -- O 43             -0.06        2.80882
         O 24 -- O 44             -0.06        2.80904
         O 19 -- O 35             -0.06        2.81045
         O 17 -- O 36             -0.06        2.81064
         O 13 -- O 29             -0.05        2.81078
         O 14 -- O 30             -0.05        2.81087
         O 35 -- O 45             -0.06        2.81095
         O 17 -- O 26             -0.06        2.81132
         O 15 -- O 31             -0.06        2.81217
         O 16 -- O 32             -0.06        2.81221
         O 18 -- O 25             -0.06        2.81260
         O 42 -- O 50             -0.06        2.81263
         O 10 -- O 24             -0.03        2.81464
         O 21 -- O 48             -0.03        2.81474
         O 43 -- O 51             -0.03        2.81478
         O 14 -- O 28             -0.03        2.81499
         O 29 -- O 46             -0.03        2.81515
         O 12 -- O 53             -0.03        2.81538
         O 52 -- O 56             -0.03        2.81547
         O 37 -- O 39             -0.03        2.81626
         O 38 -- O 40             -0.03        2.81638
         O 41 -- O 49             -0.03        2.81652
         O 37 -- O 41             -0.03        2.81679
         O 9  -- O 23             -0.03        2.81679
         O 34 -- O 47             -0.03        2.81680
         O 20 -- O 27             -0.03        2.81682
         O 27 -- O 40             -0.03        2.81692
         O 15 -- O 33             -0.03        2.81771
         O 11 -- O 32             -0.03        2.81777
         O 54 -- O 56             -0.03        2.81780
         O 16 -- O 51             -0.03        2.81784
         O 53 -- O 55             -0.03        2.81786
         O 10 -- O 31             -0.03        2.81800
         O 19 -- O 28             -0.03        2.81828
         O 36 -- O 46             -0.03        2.81837
         O 12 -- O 21             -0.03        2.81882
         O 48 -- O 52             -0.03        2.81884
         O 47 -- O 49             -0.03        2.82020
         O 20 -- O 23             -0.03        2.82029
         O 45 -- O 54             -0.03        2.82042
         O 26 -- O 55             -0.03        2.82047
         O 33 -- O 44             -0.03        2.82055
         O 11 -- O 22             -0.03        2.82062
         O 17 -- O 25             -0.03        2.82198
         O 35 -- O 42             -0.03        2.82207
         O 15 -- O 32             -0.03        2.82240
         O 51 -- O 55             -0.03        2.82278
         O 33 -- O 48             -0.03        2.82278
         O 10 -- O 54             -0.03        2.82288
         O 11 -- O 21             -0.03        2.82300
         O 16 -- O 31             -0.03        2.82328
         O 18 -- O 26             -0.03        2.82395
         O 45 -- O 50             -0.03        2.82406
         O 33 -- O 40             -0.03        2.82440
         O 11 -- O 37             -0.03        2.82447
         O 20 -- O 28             -0.03        2.82456
         O 46 -- O 49             -0.03        2.82456
         O 17 -- O 24             -0.03        2.82470
         O 48 -- O 50             -0.03        2.82488
         O 35 -- O 43             -0.03        2.82489
         O 28 -- O 56             -0.03        2.82490
         O 18 -- O 21             -0.03        2.82490
         O 10 -- O 23             -0.03        2.82499
         O 47 -- O 51             -0.03        2.82514
         O 46 -- O 53             -0.03        2.82514
         O 36 -- O 44             -0.03        2.82633
         O 19 -- O 22             -0.03        2.82648
         O 34 -- O 39             -0.03        2.82830
         O 9  -- O 38             -0.03        2.82851
         O 38 -- O 42             -0.03        2.83032
         O 25 -- O 39             -0.03        2.83048
         O 14 -- O 29             -0.03        2.83757
============================================================
 

Writing analysis data to Zr11_01_nmr.castep_bin

Writing model to Zr11_01_nmr.check
 
 A BibTeX formatted list of references used in this run has been written to 
 Zr11_01_nmr.bib
 
Initialisation time =     34.86 s
Calculation time    =   4306.89 s
Finalisation time   =     12.02 s
Total time          =   4353.77 s
Peak Memory Use     = 1347064 kB
  
Overall parallel efficiency rating: Good (70%)                                  
  
Data was distributed by:-
G-vector (24-way); efficiency rating: Good (72%)                                
k-point (14-way); efficiency rating: Excellent (95%)                            
