 +-------------------------------------------------+
 |                                                 |
 |      CCC   AA    SSS  TTTTT  EEEEE  PPPP        |
 |     C     A  A  S       T    E      P   P       |
 |     C     AAAA   SS     T    EEE    PPPP        |
 |     C     A  A     S    T    E      P           |
 |      CCC  A  A  SSS     T    EEEEE  P           |
 |                                                 |
 +-------------------------------------------------+
 |                                                 |
 | Welcome to Academic Release CASTEP version 16.11|          
 | Ab Initio Total Energy Program                  |
 |                                                 |
 | Authors:                                        |
 | M. Segall, M. Probert, C. Pickard, P. Hasnip,   |
 | S. Clark, K. Refson, J. R. Yates, M. Payne      |
 |                                                 |
 | Contributors:                                   |
 | P. Lindan, P. Haynes, J. White, V. Milman,      |
 | N. Govind, M. Gibson, P. Tulip, V. Cocula,      |
 | B. Montanari, D. Quigley, M. Glover,            |
 | L. Bernasconi, A. Perlov, M. Plummer,           |
 | E. McNellis, J. Meyer, J. Gale, D. Jochym       |
 | J. Aarons, B. Walker, R. Gillen, D. Jones       |
 | T. Green, I. J. Bush, C. J. Armstrong,          |
 | E. J. Higgins, E. L. Brown, M. S. McFly         |
 |                                                 |
 | Copyright (c) 2000 - 2015                       |
 |                                                 |
 |     Distributed under the terms of an           |
 |     Agreement between the United Kingdom        |
 |     Car-Parrinello (UKCP) Consortium,           |
 |     Daresbury Laboratory and Accelrys, Inc.     |
 |                                                 |
 | Please cite                                     |
 |                                                 |
 |     "First principles methods using CASTEP"     |
 |                                                 |
 |         Zeitschrift fuer Kristallographie       |
 |           220(5-6) pp. 567-570 (2005)           |
 |                                                 |
 | S. J. Clark, M. D. Segall, C. J. Pickard,       |
 | P. J. Hasnip, M. J. Probert, K. Refson,         |
 | M. C. Payne                                     |
 |                                                 |
 |       in all publications arising from          |
 |              your use of CASTEP                 |
 |                                                 |
 +-------------------------------------------------+
 
 
 Compiled for linux_x86_64_ifort17 on Mon, 09 Apr 2018 23:35:31 +0100
 from code version 
 203e84763863+ Castep161_branch Fri, 04 Mar 2016 19:21:07 +0000
 Compiler: Intel Fortran 17.0.1.132; Optimisation: fast
 MATHLIBS: Intel MKL(2017.0.1) (LAPACK version 3.6.0)
 FFT Lib : mkl
 Fundamental constants values: CODATA 2010
 
 Run started: Fri, 11 Sep 2020 02:15:04 +0100
 +-------------------------------------------------+
 |                                                 |
 |           N   N    M   M    RRRR                |
 |           NN  N    MM MM    R   R               |
 |           N N N    M M M    RRRR                |
 |           N  NN    M   M    R  R                |
 |           N   N    M   M    R   R               |
 |                                                 |
 +-------------------------------------------------+
 |                                                 |
 | Welcome to Materials Studio CASTEP-NMR          |
 |                                                 |
 | Authors:                                        |
 | J.R. Yates, C.J. Pickard, F. Mauri              |
 |                                                 |
 | Contributors:                                   |
 | T.F.G. Green, S.A. Joyce                        |
 |                                                 |
 | Copyright (c) 2004 - 2015                       |
 |                                                 |
 | Please cite the appropriate publications in all |
 | work arising from your use of CASTEP NMR.       |
 |                                                 |
 | For NMR Shielding Tensors cite:                 |
 |    "All-electron magnetic response with         |
 |    pseudopotentials: NMR chemical shifts",      |
 |    C. J. Pickard, F. Mauri;                     |
 |    Physical Review B63 245101 (2001), and       |
 |                                                 |
 |    "Calculation of NMR Chemical Shifts          |
 |    for extended systems using                   |
 |    Ultrasoft Pseudopotentials",                 |
 |    J. R. Yates, C. J. Pickard and F. Mauri      |
 |    Physical Review B76 024401 (2007)            |
 |                                                 |
 | For Electric Field Gradients cite:              |
 |   "Accurate First Principles Prediction of 17O  |
 |    NMR Parameters in SiO2: Assignment of the    |
 |    Zeolite Ferrierite Spectrum"                 |
 |    M. Profeta, F. Mauri and C. J. Pickard       |
 |    J. Amer. Chem. Soc. 125 541 (2003)           |
 |                                                 |
 | For Spin-Spin (J) Couplings cite:               |
 |   "A first principles theory of NMR J-coupling  |
 |   in solid-state systems"                       |
 |   S.A. Joyce, J.R. Yates, C.J. Pickard, F. Mauri|
 |   J. Chem. Phys. 127 204107 (2007)              |
 |                                                 |
 |   "Relativistic NMR J-coupling with ultrasoft   |
 |   pseudopotentials and the zeroth-order regular |
 |   approximation"                                |
 |   T.F.G. Green and J.R. Yates                   |
 |   J. Chem. Phys. 140 234106 (2014)              |
 |                                                 |
 +-------------------------------------------------+
 
 
 Atomic calculation performed for O: 1s2 2s2 2p4
 
 Converged in 44 iterations to an ae energy of -2040.855 eV
 
 
 Atomic calculation performed for O: 1s2 2s2 2p4
 
 Exceeded max iterations: converged to 0.000000062 eV
 
   ============================================================                
   | Pseudopotential Report - Date of generation 11-09-2020   |                
   ------------------------------------------------------------                
   | Element: O Ionic charge:  6.00 Level of theory: PBE      |                
   | Atomic Solver: ZORA (scalar)                             |                
   |                                                          |                
   |               Reference Electronic Structure             |                
   |         Orbital         Occupation         Energy        |                
   |            2s              2.000           -0.881        |                
   |            2p              4.000           -0.332        |                
   |                                                          |                
   |                 Pseudopotential Definition               |                
   |        Beta     l      e      Rc     scheme   norm       |                
   |          1      0   -0.881   1.100     qc      0         |                
   |          2      0    0.250   1.100     qc      0         |                
   |          3      1   -0.332   1.100     qc      0         |                
   |          4      1    0.250   1.100     qc      0         |                
   |         loc     2    0.000   1.100     pn      0         |                
   |                                                          |                
   | Augmentation charge Rinner = 0.769                       |                
   | Partial core correction Rc = 0.769                       |                
   ------------------------------------------------------------                
   | "2|1.1|15|18|20|20:21(qc=7)"                             |                
   ------------------------------------------------------------                
   |      Author: Chris J. Pickard, Cambridge University      |                
   ============================================================                
 
 Atomic calculation performed for Zr: 1s2 2s2 2p6 3s2 3p6 3d10 4s2 4p6 4d2 5s2
 
 Converged in 53 iterations to an ae energy of -97719.888 eV
 
 
 Atomic calculation performed for Zr: 1s2 2s2 2p6 3s2 3p6 3d10 4s2 4p6 4d2 5s2
 
 Exceeded max iterations: converged to 0.000000970 eV
 
 Warning: ion_atom_descreen_psp: negative charge density encountered
   ============================================================                
   | Pseudopotential Report - Date of generation 11-09-2020   |                
   ------------------------------------------------------------                
   | Element: Zr Ionic charge: 12.00 Level of theory: PBE     |                
   | Atomic Solver: ZORA (scalar)                             |                
   |                                                          |                
   |               Reference Electronic Structure             |                
   |         Orbital         Occupation         Energy        |                
   |            4s              2.000           -2.003        |                
   |            4p              6.000           -1.193        |                
   |            5s              2.000           -0.163        |                
   |            4d              2.000           -0.132        |                
   |                                                          |                
   |                 Pseudopotential Definition               |                
   |        Beta     l      e      Rc     scheme   norm       |                
   |          1      0   -2.003   2.105     qc      0         |                
   |          2      0   -0.163   2.105     qc      0         |                
   |          3      0    0.250   2.105     qc      0         |                
   |          4      1   -1.193   2.105     qc      0         |                
   |          5      1    0.250   2.105     qc      0         |                
   |          6      2   -0.132   2.105     qc      0         |                
   |          7      2    0.250   2.105     qc      0         |                
   |         loc     3    0.000   2.105     pn      0         |                
   |                                                          |                
   | Augmentation charge Rinner = 1.471                       |                
   | Partial core correction Rc = 1.471                       |                
   ------------------------------------------------------------                
   | "3|2.1|7|8|9|40U:50:41:42"                               |                
   ------------------------------------------------------------                
   |      Author: Chris J. Pickard, Cambridge University      |                
   ============================================================                
 
 Atomic calculation performed for Sn:
 1s2 2s2 2p6 3s2 3p6 3d10 4s2 4p6 4d10 5s2 5p2
 
 Converged in 58 iterations to an ae energy of -167539.320 eV
 
 
 Atomic calculation performed for Sn:
 1s2 2s2 2p6 3s2 3p6 3d10 4s2 4p6 4d10 5s2 5p2
 
 Exceeded max iterations: converged to 0.000001154 eV
 
   ============================================================                
   | Pseudopotential Report - Date of generation 11-09-2020   |                
   ------------------------------------------------------------                
   | Element: Sn Ionic charge: 14.00 Level of theory: PBE     |                
   | Atomic Solver: ZORA (scalar)                             |                
   |                                                          |                
   |               Reference Electronic Structure             |                
   |         Orbital         Occupation         Energy        |                
   |            4d             10.000           -0.950        |                
   |            5s              2.000           -0.388        |                
   |            5p              2.000           -0.136        |                
   |                                                          |                
   |                 Pseudopotential Definition               |                
   |        Beta     l      e      Rc     scheme   norm       |                
   |          1      0   -0.388   2.199     qc      0         |                
   |          2      0    0.250   2.199     qc      0         |                
   |          3      1   -0.136   2.199     qc      0         |                
   |          4      1    0.250   2.199     qc      0         |                
   |          5      2   -0.950   2.199     qc      0         |                
   |          6      2    0.250   2.199     qc      0         |                
   |         loc     3    0.000   2.199     pn      0         |                
   |                                                          |                
   | Augmentation charge Rinner = 1.537                       |                
   | Partial core correction Rc = 1.537                       |                
   ------------------------------------------------------------                
   | "3|2.2|7|8|9|50:51:42"                                   |                
   ------------------------------------------------------------                
   |      Author: Chris J. Pickard, Cambridge University      |                
   ============================================================                
 
 Atomic calculation performed for La:
 1s2 2s2 2p6 3s2 3p6 3d10 4s2 4p6 4d10 5s2 5p6 5d1 6s2
 
 Converged in 56 iterations to an ae energy of -230121.495 eV
 
 
 Atomic calculation performed for La:
 1s2 2s2 2p6 3s2 3p6 3d10 4s2 4p6 4d10 5s2 5p6 5d1 6s2
 
 Exceeded max iterations: converged to 0.000000907 eV
 
 Warning: ion_atom_descreen_psp: negative charge density encountered
   ============================================================                
   | Pseudopotential Report - Date of generation 11-09-2020   |                
   ------------------------------------------------------------                
   | Element: La Ionic charge: 11.00 Level of theory: PBE     |                
   | Atomic Solver: ZORA (scalar)                             |                
   |                                                          |                
   |               Reference Electronic Structure             |                
   |         Orbital         Occupation         Energy        |                
   |            5s              2.000           -1.430        |                
   |            5p              6.000           -0.823        |                
   |            6s              2.000           -0.135        |                
   |            5d              1.000           -0.114        |                
   |                                                          |                
   |                 Pseudopotential Definition               |                
   |        Beta     l      e      Rc     scheme   norm       |                
   |          1      0   -1.430   2.298     qc      0         |                
   |          2      0   -0.135   2.298     qc      0         |                
   |          3      0    0.250   2.298     qc      0         |                
   |          4      1   -0.823   2.298     qc      0         |                
   |          5      1    0.250   2.298     qc      0         |                
   |          6      2   -0.114   2.298     qc      0         |                
   |          7      2    0.250   2.298     qc      0         |                
   |         loc     2    0.000   2.298     pn      0         |                
   |                                                          |                
   | Augmentation charge Rinner = 1.606                       |                
   | Partial core correction Rc = 1.606                       |                
   ------------------------------------------------------------                
   | "2|2.3|5|6|7|50U:60:51:52(qc=4.5)"                       |                
   ------------------------------------------------------------                
   |      Author: Chris J. Pickard, Cambridge University      |                
   ============================================================                
 
 Pseudo atomic calculation performed for O 2s2 2p4
 
 Converged in 39 iterations to a total energy of -432.6554 eV
 
 
 Pseudo atomic calculation performed for Zr 4s2 4p6 4d2 5s2
 
 Converged in 38 iterations to a total energy of -1285.4931 eV
 
 
 Pseudo atomic calculation performed for Sn 4d10 5s2 5p2
 
 Converged in 48 iterations to a total energy of -2044.5414 eV
 
 
 Pseudo atomic calculation performed for La 5s2 5p6 5d1 6s2
 
 Converged in 34 iterations to a total energy of -968.0372 eV
 
 Calculation parallelised over 336 processes.
 Data is distributed by G-vector(24-way) and k-point(14-way)

 ************************************ Title ************************************
 nmr testing

 ***************************** General Parameters ******************************
  
 output verbosity                               : normal  (1)
 write checkpoint data to                       : Zr11_10_nmr.check
 type of calculation                            : Magnetic Resonance
 stress calculation                             : on
 density difference calculation                 : off
 electron localisation func (ELF) calculation   : off
 Hirshfeld analysis                             : off
 unlimited duration calculation
 timing information                             : on
 memory usage estimate                          : on
 write final potential to formatted file        : off
 write final density to formatted file          : off
 write BibTeX reference list                    : on
 write OTFG pseudopotential files               : on
 checkpoint writing                             : both castep_bin and check files
  
 output         length unit                     : A
 output           mass unit                     : amu
 output           time unit                     : ps
 output         charge unit                     : e
 output           spin unit                     : hbar/2
 output         energy unit                     : eV
 output          force unit                     : eV/A
 output       velocity unit                     : A/ps
 output       pressure unit                     : GPa
 output     inv_length unit                     : 1/A
 output      frequency unit                     : cm-1
 output force constant unit                     : eV/A**2
 output         volume unit                     : A**3
 output   IR intensity unit                     : (D/A)**2/amu
 output         dipole unit                     : D
 output         efield unit                     : eV/A/e
 output        entropy unit                     : J/mol/K
  
 wavefunctions paging                           : none
 random number generator seed                   : randomised (21504786)
 data distribution                              : optimal for this architecture
 optimization strategy                          : maximize speed(+++)

 *********************** Exchange-Correlation Parameters ***********************
  
 using functional                               : Perdew Burke Ernzerhof
 relativistic treatment                         : ZORA
 DFT+D: Semi-empirical dispersion correction    : off

 ************************* Pseudopotential Parameters **************************
  
 pseudopotential representation                 : reciprocal space
 <beta|phi> representation                      : reciprocal space
 spin-orbit coupling                            : off

 **************************** Basis Set Parameters *****************************
  
 plane wave basis set cut-off                   :   816.3416   eV
 size of standard grid                          :     1.7500
 size of   fine   gmax                          :    25.6161   1/A
 finite basis set correction                    : automatic
 number of sample energies                      :          3
           sample  spacing                      :     5.0000   eV

 **************************** Electronic Parameters ****************************
  
 number of  electrons                           :  714.0    
 net charge of system                           :  0.000    
 treating system as non-spin-polarized
 number of bands                                :        428

 ********************* Electronic Minimization Parameters **********************
  
 Method: Treating system as metallic with density mixing treatment of electrons,
         and number of  SD  steps               :          1
         and number of  CG  steps               :          4
  
 total energy / atom convergence tol.           : 0.1000E-08   eV
 eigen-energy convergence tolerance             : 0.2465E-09   eV
 max force / atom convergence tol.              : ignored
 convergence tolerance window                   :          3   cycles
 max. number of SCF cycles                      :         50
 number of fixed-spin iterations                :         10
 smearing scheme                                : Gaussian
 smearing width                                 : 0.2000       eV
 Fermi energy convergence tolerance             : 0.2721E-13   eV
 periodic dipole correction                     : NONE

 ************************** Density Mixing Parameters **************************
  
 density-mixing scheme                          : Broyden
 max. length of mixing history                  :         20
 charge density mixing amplitude                : 0.8000    
 cut-off energy for mixing                      :  816.3       eV

 *********************** Population Analysis Parameters ************************
  
 Population analysis with cutoff                :  3.000       A

 ************************ Magnetic Resonance Parameters ************************
  
 Magnetic Resonance Property                    : Chemical Shielding + EFG
 Position Operator Method                       : crystal
 max. number of MagRes CG steps                 :        250
 convergence tolerance window                   :          2   cycles
 energy convergence tolerance                   : 0.1000E-11   eV
 band convergence tolerance                     : 0.1000E-08   eV

 *******************************************************************************
  
 
                           -------------------------------
                                      Unit Cell
                           -------------------------------
        Real Lattice(A)                      Reciprocal Lattice(1/A)
  10.9070500  -0.0023146  -0.0015358        0.5760665   0.0001220   0.0000812
  -0.0023114  10.9134613   0.0020176        0.0001222   0.5757281  -0.0001066
  -0.0015370   0.0020206  10.9059756        0.0000811  -0.0001065   0.5761232
 
                       Lattice parameters(A)       Cell Angles
                    a =   10.907050          alpha =   89.978790
                    b =   10.913462          beta  =   90.016145
                    c =   10.905976          gamma =   90.024295
 
                       Current cell volume = 1298.178155       A**3
 
                           -------------------------------
                                     Cell Contents
                           -------------------------------
                         Total number of ions in cell =   88
                      Total number of species in cell =    4
                        Max number of any one species =   56
 
            xxxxxxxxxxxxxxxxxxxxxxxxxxxxxxxxxxxxxxxxxxxxxxxxxxxxxxxxxxxx
            x  Element    Atom        Fractional coordinates of atoms  x
            x            Number           u          v          w      x
            x----------------------------------------------------------x
            x  O            1         0.125074   0.124894   0.125120   x 
            x  O            2         0.624895   0.125132   0.625024   x 
            x  O            3         0.125365   0.625109   0.625080   x 
            x  O            4         0.624888   0.625053   0.125087   x 
            x  O            5         0.874989   0.374841   0.374943   x 
            x  O            6         0.875026   0.875193   0.875242   x 
            x  O            7         0.375121   0.374850   0.875036   x 
            x  O            8         0.375137   0.874940   0.374967   x 
            x  O            9         0.420096   0.125643   0.124745   x 
            x  O           10         0.330535   0.125080   0.624890   x 
            x  O           11         0.830674   0.625669   0.625703   x 
            x  O           12         0.920191   0.624565   0.124038   x 
            x  O           13         0.124704   0.419742   0.124694   x 
            x  O           14         0.624605   0.329918   0.124443   x 
            x  O           15         0.626058   0.829566   0.624613   x 
            x  O           16         0.123611   0.921274   0.624383   x 
            x  O           17         0.123852   0.124619   0.421165   x 
            x  O           18         0.125355   0.624707   0.329212   x 
            x  O           19         0.626136   0.624596   0.829407   x 
            x  O           20         0.624823   0.125662   0.920140   x 
            x  O           21         0.874784   0.670540   0.375894   x 
            x  O           22         0.875332   0.580367   0.874496   x 
            x  O           23         0.374832   0.079928   0.874847   x 
            x  O           24         0.374500   0.169559   0.374782   x 
            x  O           25         0.171189   0.374838   0.373319   x 
            x  O           26         0.079681   0.875144   0.375570   x 
            x  O           27         0.579620   0.874820   0.874683   x 
            x  O           28         0.670724   0.375806   0.874243   x 
            x  O           29         0.876258   0.375443   0.079372   x 
            x  O           30         0.373651   0.375435   0.170800   x 
            x  O           31         0.374945   0.874963   0.669835   x 
            x  O           32         0.875053   0.874314   0.580511   x 
            x  O           33         0.670670   0.874181   0.375783   x 
            x  O           34         0.079719   0.375152   0.876144   x 
            x  O           35         0.375370   0.669873   0.875467   x 
            x  O           36         0.875580   0.079139   0.375702   x 
            x  O           37         0.874435   0.375641   0.670590   x 
            x  O           38         0.375030   0.874533   0.080073   x 
            x  O           39         0.124613   0.330043   0.624747   x 
            x  O           40         0.624658   0.920150   0.125677   x 
            x  O           41         0.920522   0.124062   0.624513   x 
            x  O           42         0.329446   0.624486   0.125529   x 
            x  O           43         0.123666   0.624641   0.920780   x 
            x  O           44         0.625043   0.124806   0.330077   x 
            x  O           45         0.419450   0.625246   0.624397   x 
            x  O           46         0.830226   0.125954   0.125926   x 
            x  O           47         0.125345   0.125669   0.830374   x 
            x  O           48         0.625160   0.626007   0.420756   x 
            x  O           49         0.874730   0.169433   0.874502   x 
            x  O           50         0.374636   0.579090   0.373906   x 
            x  O           51         0.170244   0.874179   0.874048   x 
            x  O           52         0.580117   0.375136   0.375342   x 
            x  O           53         0.874725   0.874555   0.169338   x 
            x  O           54         0.375605   0.374605   0.580645   x 
            x  O           55         0.125151   0.830785   0.125438   x 
            x  O           56         0.625741   0.420572   0.625711   x 
            x  Zr           1         0.499990   0.500142   0.500206   x 
            x  Zr           2         0.249171   0.749411   0.000482   x 
            x  Zr           3         0.750464  -0.000514   0.250851   x 
            x  Zr           4        -0.000231   0.249963   0.750428   x 
            x  Zr           5         0.750845   0.250844  -0.000620   x 
            x  Zr           6         0.249601   0.000426   0.749182   x 
            x  Zr           7        -0.000079   0.750342   0.249494   x 
            x  Zr           8         0.499880   0.000080  -0.000077   x 
            x  Zr           9         0.249874   0.249655   0.499876   x 
            x  Zr          10         0.499485   0.250508   0.250291   x 
            x  Zr          11         0.500416   0.749187   0.749072   x 
            x  Sn           1         0.750213   0.500232   0.749967   x 
            x  Sn           2         0.750117   0.749936   0.500288   x 
            x  Sn           3         0.249260   0.500451   0.249098   x 
            x  Sn           4        -0.000068   0.499931  -0.000176   x 
            x  Sn           5        -0.000830  -0.000801   0.499567   x 
            x  La           1        -0.000010   0.000078   0.000077   x 
            x  La           2         0.749643   0.250088   0.499890   x 
            x  La           3         0.250335   0.499802   0.749759   x 
            x  La           4         0.500039   0.750232   0.249821   x 
            x  La           5         0.250316   0.749882   0.500009   x 
            x  La           6         0.749711   0.499880   0.250119   x 
            x  La           7         0.499893   0.249940   0.749958   x 
            x  La           8         0.000291   0.499838   0.500095   x 
            x  La           9         0.749851   0.750444   0.000196   x 
            x  La          10         0.250163  -0.000063   0.249912   x 
            x  La          11         0.250101   0.249519  -0.000249   x 
            x  La          12         0.749780   0.000234   0.750518   x 
            x  La          13         0.499860   0.000229   0.499998   x 
            x  La          14         0.000466   0.750288   0.750411   x 
            x  La          15        -0.000195   0.249657   0.249908   x 
            x  La          16         0.500064   0.500016  -0.000102   x 
            xxxxxxxxxxxxxxxxxxxxxxxxxxxxxxxxxxxxxxxxxxxxxxxxxxxxxxxxxxxx
 
 
                         No user defined ionic velocities
 
                           -------------------------------
                                   Details of Species
                           -------------------------------
 
                               Mass of species in AMU
                                    O   15.9994000
                                    Zr   91.2240000
                                    Sn  118.7100000
                                    La  138.9055000
 
                          Electric Quadrupole Moment (Barn)
                                    O   -0.0255800 Isotope 17
                                    Zr   -0.1760000 Isotope 91
                                    Sn    1.0000000 No Isotope Defined
                                    La    0.2000000 Isotope139
 
                          Files used for pseudopotentials:
                                    O 2|1.1|15|18|20|20:21(qc=7)
                                    Zr 3|2.1|7|8|9|40U:50:41:42
                                    Sn 3|2.2|7|8|9|50:51:42
                                    La 2|2.3|5|6|7|50U:60:51:52(qc=4.5)
 
                           -------------------------------
                              k-Points For BZ Sampling
                           -------------------------------
                       MP grid size for SCF calculation is  3  3  3
                            with an offset of   0.000  0.000  0.000
                       Number of kpoints used =            14
 
                           -------------------------------
                               Symmetry and Constraints
                           -------------------------------
 
                      Maximum deviation from symmetry =  0.00000         ANG
 
         There are no symmetry operations specified or generated for this cell
                      Number of ionic constraints     =           3
                      Point group of crystal =     1: C1, 1, 1
                      Space group of crystal =     1: P1, P 1
 
 
                         Centre of mass is constrained
             Set iprint > 1 for details of linear ionic constraints
 
                         Number of cell constraints= 0
                         Cell constraints are:  1 2 3 4 5 6
 
                         External pressure/stress (GPa)
                          0.00000   0.00000   0.00000
                                    0.00000   0.00000
                                              0.00000
  
+---------------- MEMORY AND SCRATCH DISK ESTIMATES PER PROCESS --------------+
|                                                     Memory          Disk    |
| Baseline code, static data and system overhead      453.0 MB         0.0 MB |
| BLAS internal memory storage                          0.0 MB         0.0 MB |
| Model and support data                              279.9 MB         0.0 MB |
| Electronic energy minimisation requirements          67.4 MB         0.0 MB |
| Force calculation requirements                        4.0 MB         0.0 MB |
| Stress calculation requirements                       4.8 MB         0.0 MB |
|                                               ----------------------------- |
| Approx. total storage required per process          800.2 MB         0.0 MB |
|                                                                             |
| Requirements will fluctuate during execution and may exceed these estimates |
+-----------------------------------------------------------------------------+
Calculating finite basis set correction with  3 cut-off energies.
Calculating total energy with cut-off of  806.342eV.
------------------------------------------------------------------------ <-- SCF
SCF loop      Energy           Fermi           Energy gain       Timer   <-- SCF
                               energy          per atom          (sec)   <-- SCF
------------------------------------------------------------------------ <-- SCF
Initial  -5.34081350E+004  0.00000000E+000                        43.53  <-- SCF
      1  -6.22688879E+004  7.65489599E+000   1.00690374E+002      61.51  <-- SCF
      2  -6.48468916E+004  7.36925248E+000   2.92954965E+001      73.25  <-- SCF
      3  -6.49231432E+004  6.96349680E+000   8.66494728E-001      86.77  <-- SCF
      4  -6.49199573E+004  7.79152174E+000  -3.62026913E-002     103.23  <-- SCF
      5  -6.48095272E+004  7.44828283E+000  -1.25488778E+000     118.57  <-- SCF
      6  -6.48112797E+004  7.36129322E+000   1.99148340E-002     138.94  <-- SCF
      7  -6.48110488E+004  7.43512017E+000  -2.62457000E-003     155.88  <-- SCF
      8  -6.48110980E+004  7.43785400E+000   5.59511336E-004     176.17  <-- SCF
      9  -6.48111171E+004  7.43931136E+000   2.17388188E-004     194.79  <-- SCF
     10  -6.48111188E+004  7.43530913E+000   1.93235105E-005     213.07  <-- SCF
     11  -6.48111179E+004  7.43745064E+000  -1.03559176E-005     231.00  <-- SCF
     12  -6.48111182E+004  7.43767271E+000   3.67012952E-006     250.61  <-- SCF
     13  -6.48111183E+004  7.43727459E+000   3.96152978E-007     267.91  <-- SCF
     14  -6.48111182E+004  7.43709488E+000  -2.15242885E-007     284.42  <-- SCF
     15  -6.48111182E+004  7.43677142E+000  -5.82530265E-008     302.67  <-- SCF
     16  -6.48111182E+004  7.43656280E+000  -6.55866304E-009     317.88  <-- SCF
     17  -6.48111182E+004  7.43648739E+000   1.10595354E-009     332.73  <-- SCF
     18  -6.48111182E+004  7.43644577E+000  -6.58088054E-010     344.95  <-- SCF
     19  -6.48111182E+004  7.43641973E+000   1.98270119E-010     356.24  <-- SCF
------------------------------------------------------------------------ <-- SCF
 
Final energy, E             =  -64811.11824144     eV
Final free energy (E-TS)    =  -64811.11824144     eV
(energies not corrected for finite basis set)
 
NB est. 0K energy (E-0.5TS)      =  -64811.11824144     eV
 
Calculating total energy with cut-off of  811.342eV.
------------------------------------------------------------------------ <-- SCF
SCF loop      Energy           Fermi           Energy gain       Timer   <-- SCF
                               energy          per atom          (sec)   <-- SCF
------------------------------------------------------------------------ <-- SCF
Initial  -6.48111182E+004  0.00000000E+000                       359.98  <-- SCF
      1  -6.48111207E+004  7.43639855E+000   2.82000895E-005     373.75  <-- SCF
      2  -6.48111207E+004  7.43639855E+000   2.03894803E-010     384.88  <-- SCF
      3  -6.48111207E+004  7.43639853E+000   1.67816672E-008     395.52  <-- SCF
      4  -6.48111207E+004  7.43640942E+000   5.22673781E-010     406.13  <-- SCF
      5  -6.48111207E+004  7.43640910E+000  -1.07150234E-010     416.74  <-- SCF
------------------------------------------------------------------------ <-- SCF
 
Final energy, E             =  -64811.12072457     eV
Final free energy (E-TS)    =  -64811.12072457     eV
(energies not corrected for finite basis set)
 
NB est. 0K energy (E-0.5TS)      =  -64811.12072457     eV
 
Calculating total energy with cut-off of  816.342eV.
------------------------------------------------------------------------ <-- SCF
SCF loop      Energy           Fermi           Energy gain       Timer   <-- SCF
                               energy          per atom          (sec)   <-- SCF
------------------------------------------------------------------------ <-- SCF
Initial  -6.48111207E+004  0.00000000E+000                       420.54  <-- SCF
      1  -6.48111236E+004  7.43642431E+000   3.24999516E-005     434.26  <-- SCF
      2  -6.48111236E+004  7.43642431E+000   1.99395056E-010     444.58  <-- SCF
      3  -6.48111236E+004  7.43641387E+000   1.98514793E-008     455.19  <-- SCF
      4  -6.48111236E+004  7.43641525E+000   6.27855376E-010     465.62  <-- SCF
      5  -6.48111236E+004  7.43641058E+000  -1.11087513E-011     475.92  <-- SCF
------------------------------------------------------------------------ <-- SCF
 
Final energy, E             =  -64811.12358639     eV
Final free energy (E-TS)    =  -64811.12358639     eV
(energies not corrected for finite basis set)
 
NB est. 0K energy (E-0.5TS)      =  -64811.12358639     eV
 
 For future reference: finite basis dEtot/dlog(Ecut) =      -0.436385eV
 Total energy corrected for finite basis set =  -64811.123584 eV
 
  =====================================================================
  +       Calculation of Nuclear Magnetic Resonance Parameters        +
  + ================================================================= +
 
  Starting Calculation of Electric Field Gradient Tensors         |<-- EFG
  +---------------- MEMORY AND SCRATCH DISK ESTIMATES PER PROCESS --------------+
  |                                                     Memory          Disk    |
  | Model and support data                              281.1 MB         0.0 MB |
  | NMR EFG calculation requirements                     65.0 MB         0.0 MB |
  |                                               ----------------------------- |
  | Approx. total storage required per process          346.1 MB         0.0 MB |
  |                                                                             |
  | Requirements will fluctuate during execution and may exceed these estimates |
  +-----------------------------------------------------------------------------+
  Total Time for EFG Tensors                      47.22 sec       |<-- EFG
 
  Starting Calculation of Chemical Shielding Tensors              |<-- NMR
  +---------------- MEMORY AND SCRATCH DISK ESTIMATES PER PROCESS --------------+
  |                                                     Memory          Disk    |
  | Model and support data                              281.1 MB         0.0 MB |
  | NMR chemical shift calculation requirements         142.3 MB         0.0 MB |
  |                                               ----------------------------- |
  | Approx. total storage required per process          423.5 MB         0.0 MB |
  |                                                                             |
  | Requirements will fluctuate during execution and may exceed these estimates |
  +-----------------------------------------------------------------------------+
  Starting k-point:   1 of   1                                    |<-- NMR
  Total Time for step 1 of 6:                    415.70 sec       |<-- NMR
  Total Time for step 2 of 6:                    415.73 sec       |<-- NMR
  Total Time for step 3 of 6:                    417.38 sec       |<-- NMR
  Total Time for step 4 of 6:                    417.48 sec       |<-- NMR
  Total Time for step 5 of 6:                    417.79 sec       |<-- NMR
  Total Time for step 6 of 6:                    412.91 sec       |<-- NMR
  Total Time for Chemical Shielding Tensors     3784.89 sec       |<-- NMR
 
  ========================================================================
  |           Chemical Shielding and Electric Field Gradient Tensors     |
  |----------------------------------------------------------------------|
  |     Nucleus                Shielding tensor             EFG Tensor   |
  |  Species       Ion    Iso(ppm)   Aniso(ppm)  Asym    Cq(MHz)    Eta  |
  |    O           1     -316.56      -6.98      0.76  -4.065E-02   0.35 |
  |    O           2     -316.70      -9.02      0.69   4.864E-02   0.88 |
  |    O           3     -316.92     -15.98      0.29  -6.238E-02   0.96 |
  |    O           4     -316.19     -11.68      0.97   6.284E-02   0.85 |
  |    O           5     -316.66     -10.68      0.85   7.212E-02   0.98 |
  |    O           6     -317.26       7.87      0.93  -2.411E-02   0.35 |
  |    O           7     -316.74     -14.41      0.73   6.776E-02   0.78 |
  |    O           8     -315.78       6.80      0.65   3.633E-02   0.24 |
  |    O           9     -165.20     154.60      0.77   1.067E+00   0.88 |
  |    O          10     -166.10     160.86      0.80   1.052E+00   0.97 |
  |    O          11       -3.45      66.42      0.81   3.844E+00   0.88 |
  |    O          12      -87.21      85.36      0.18  -3.191E+00   0.09 |
  |    O          13       -6.41      71.05      0.31   3.915E+00   0.81 |
  |    O          14     -161.30     144.18      0.78   1.088E+00   0.72 |
  |    O          15      -89.67      83.46      0.21  -3.224E+00   0.11 |
  |    O          16      -84.56      83.99      0.19  -3.218E+00   0.11 |
  |    O          17      -88.01      95.51      0.28  -3.103E+00   0.12 |
  |    O          18      -86.39      89.67      0.34  -3.135E+00   0.10 |
  |    O          19      -88.21      81.57      0.14  -3.214E+00   0.12 |
  |    O          20     -164.92     153.07      0.77   1.048E+00   0.89 |
  |    O          21      -86.57      82.08      0.28  -3.143E+00   0.09 |
  |    O          22       -5.24      70.02      0.56   3.881E+00   0.85 |
  |    O          23     -166.35     155.09      0.76   1.045E+00   0.98 |
  |    O          24     -165.03     156.14      0.83   1.073E+00   0.90 |
  |    O          25      -83.44      85.81      0.13  -3.153E+00   0.10 |
  |    O          26      -88.54      90.66      0.19  -3.195E+00   0.11 |
  |    O          27     -163.92     146.91      0.78   1.076E+00   0.81 |
  |    O          28      -91.14      90.63      0.20  -3.179E+00   0.13 |
  |    O          29      -86.91      84.59      0.11  -3.240E+00   0.10 |
  |    O          30      -85.76      82.17      0.09  -3.172E+00   0.12 |
  |    O          31     -162.22     150.98      0.78   1.050E+00   0.81 |
  |    O          32       -2.50      69.82      0.59   3.884E+00   0.84 |
  |    O          33      -92.53      91.80      0.13  -3.194E+00   0.13 |
  |    O          34      -88.24      78.73      0.08  -3.232E+00   0.11 |
  |    O          35     -162.28     143.84      0.79   1.063E+00   0.73 |
  |    O          36      -88.42      92.01      0.12  -3.263E+00   0.12 |
  |    O          37      -86.14      86.27      0.35  -3.174E+00   0.10 |
  |    O          38     -164.59     152.02      0.78   1.048E+00   0.89 |
  |    O          39     -160.72     146.90      0.84   1.106E+00   0.73 |
  |    O          40     -163.80     151.74      0.77   1.072E+00   0.87 |
  |    O          41      -85.32      83.58      0.27  -3.162E+00   0.10 |
  |    O          42      -88.71      89.94      0.18  -3.229E+00   0.13 |
  |    O          43      -86.52      85.45      0.11  -3.226E+00   0.11 |
  |    O          44     -163.61     146.01      0.77   1.050E+00   0.82 |
  |    O          45     -163.99     157.83      0.85   1.090E+00   0.85 |
  |    O          46     -163.02     148.41      0.78   1.041E+00   0.81 |
  |    O          47     -165.33     157.19      0.81   1.053E+00   0.90 |
  |    O          48      -89.39      92.00      0.24  -3.174E+00   0.12 |
  |    O          49     -165.85     158.70      0.85   1.082E+00   0.88 |
  |    O          50      -89.75      92.29      0.25  -3.144E+00   0.11 |
  |    O          51     -162.30     150.79      0.78   1.070E+00   0.79 |
  |    O          52     -162.29     149.01      0.82   1.102E+00   0.78 |
  |    O          53     -165.46     159.59      0.84   1.060E+00   0.88 |
  |    O          54     -164.51     155.49      0.79   1.037E+00   0.90 |
  |    O          55     -166.30     159.78      0.85   1.054E+00   0.90 |
  |    O          56      -91.44      84.09      0.13  -3.230E+00   0.13 |
  |    Zr          1     1628.36    -126.65      0.12  -3.824E+01   0.10 |
  |    Zr          2     1623.23    -124.31      0.17  -3.929E+01   0.01 |
  |    Zr          3     1623.34    -122.53      0.16  -3.926E+01   0.06 |
  |    Zr          4     1627.26    -128.24      0.11  -3.813E+01   0.13 |
  |    Zr          5     1622.80    -123.65      0.16  -3.919E+01   0.03 |
  |    Zr          6     1628.88    -124.76      0.06  -4.014E+01   0.04 |
  |    Zr          7     1621.17    -125.81      0.10  -3.733E+01   0.08 |
  |    Zr          8     1623.26    -119.06      0.10  -4.086E+01   0.05 |
  |    Zr          9     1632.70    -126.93      0.07  -3.906E+01   0.04 |
  |    Zr         10     1628.87    -123.25      0.10  -3.998E+01   0.09 |
  |    Zr         11     1623.29    -122.97      0.06  -3.907E+01   0.11 |
  |    Sn          1     3258.50     -55.52      0.11   1.278E+02   0.06 |
  |    Sn          2     3257.96     -54.32      0.06   1.280E+02   0.05 |
  |    Sn          3     3252.08     -47.69      0.12   1.284E+02   0.08 |
  |    Sn          4     3259.03     -62.77      0.16   1.287E+02   0.16 |
  |    Sn          5     3252.29     -49.68      0.31   1.294E+02   0.19 |
  |    La          1     4800.35     960.12      0.01  -8.784E+01   0.04 |
  |    La          2     4706.94     765.54      0.06  -8.296E+01   0.08 |
  |    La          3     4757.22     860.92      0.05  -8.541E+01   0.09 |
  |    La          4     4701.58     769.08      0.04  -8.159E+01   0.07 |
  |    La          5     4707.00     770.37      0.04  -8.334E+01   0.04 |
  |    La          6     4713.27     757.57      0.04  -8.346E+01   0.07 |
  |    La          7     4749.00     871.22      0.05  -8.325E+01   0.06 |
  |    La          8     4667.29     648.39      0.08  -8.003E+01   0.12 |
  |    La          9     4705.41     750.87      0.04  -8.181E+01   0.07 |
  |    La         10     4755.05     870.14      0.04  -8.429E+01   0.04 |
  |    La         11     4701.99     758.86      0.06  -8.060E+01   0.09 |
  |    La         12     4707.79     752.36      0.04  -8.123E+01   0.08 |
  |    La         13     4754.85     867.05      0.05  -8.401E+01   0.08 |
  |    La         14     4601.75     513.92      0.09  -7.464E+01   0.07 |
  |    La         15     4653.40     665.68      0.10  -7.884E+01   0.14 |
  |    La         16     4710.39     782.44      0.12  -8.240E+01   0.14 |
  ========================================================================
 
 *********************** Forces ***********************
 *                                                    *
 *            Cartesian components (eV/A)             *
 * -------------------------------------------------- *
 *                   x            y            z      *
 *                                                    *
 * O         1      0.00032     -0.01968     -0.00460 *
 * O         2     -0.00837     -0.00932      0.00247 *
 * O         3      0.01006     -0.01071      0.00334 *
 * O         4     -0.00082     -0.00529     -0.00112 *
 * O         5     -0.00594      0.00554     -0.00175 *
 * O         6     -0.00045      0.01940      0.01084 *
 * O         7      0.00118      0.00435     -0.00488 *
 * O         8      0.00171      0.01473     -0.00090 *
 * O         9      0.00642     -0.00109      0.00178 *
 * O        10     -0.01840      0.00265     -0.00482 *
 * O        11      0.00509      0.00107     -0.00319 *
 * O        12     -0.00333     -0.01373     -0.00506 *
 * O        13      0.00378     -0.00742      0.00147 *
 * O        14      0.00749      0.00542     -0.00009 *
 * O        15      0.01498      0.00264     -0.02623 *
 * O        16     -0.00796     -0.00145     -0.02230 *
 * O        17     -0.00876     -0.01158     -0.00466 *
 * O        18      0.01228     -0.00701     -0.00518 *
 * O        19      0.01138     -0.01740     -0.00467 *
 * O        20      0.00384      0.01236      0.01373 *
 * O        21     -0.02286     -0.00353      0.00621 *
 * O        22     -0.00410      0.00580      0.00096 *
 * O        23      0.00157     -0.02076     -0.00587 *
 * O        24     -0.00039      0.00796      0.00253 *
 * O        25     -0.00185      0.00705     -0.01129 *
 * O        26     -0.00453      0.01206      0.00867 *
 * O        27     -0.01018     -0.00539     -0.00609 *
 * O        28      0.00592      0.00898     -0.00941 *
 * O        29      0.01209      0.02218      0.00044 *
 * O        30     -0.00930      0.01535     -0.00702 *
 * O        31      0.00579     -0.00606     -0.00492 *
 * O        32     -0.00395      0.00137      0.00978 *
 * O        33      0.00380     -0.00974      0.01647 *
 * O        34     -0.00236      0.02015      0.01154 *
 * O        35     -0.00741     -0.00690     -0.00648 *
 * O        36      0.01341     -0.00916      0.01947 *
 * O        37     -0.02196      0.00579      0.00101 *
 * O        38     -0.01147     -0.00550     -0.01071 *
 * O        39      0.00561     -0.00598      0.00975 *
 * O        40      0.00214      0.01617      0.00799 *
 * O        41     -0.00818     -0.00115     -0.01133 *
 * O        42     -0.01095     -0.01167      0.01079 *
 * O        43     -0.00900     -0.02265      0.00107 *
 * O        44     -0.00080      0.00108     -0.00183 *
 * O        45      0.00978     -0.00410     -0.00059 *
 * O        46     -0.00019      0.00010     -0.00236 *
 * O        47     -0.00705     -0.00014     -0.01204 *
 * O        48      0.00996      0.01619      0.00205 *
 * O        49      0.00681      0.01247      0.01092 *
 * O        50     -0.00482      0.00131     -0.00855 *
 * O        51      0.00041     -0.00154      0.01029 *
 * O        52     -0.00958     -0.00220      0.00178 *
 * O        53      0.00816      0.00326      0.01136 *
 * O        54     -0.00121     -0.00866     -0.01352 *
 * O        55     -0.00728     -0.00745     -0.00529 *
 * O        56      0.00534      0.00606      0.01148 *
 * Zr        1      0.00512     -0.00105     -0.01026 *
 * Zr        2      0.01204     -0.00594     -0.00833 *
 * Zr        3     -0.00349      0.01018      0.00938 *
 * Zr        4     -0.00092      0.00527     -0.00688 *
 * Zr        5     -0.00541      0.00576      0.01050 *
 * Zr        6      0.00677     -0.01202      0.00039 *
 * Zr        7     -0.00081     -0.00162      0.00707 *
 * Zr        8      0.00128     -0.00175     -0.00182 *
 * Zr        9     -0.00813      0.00450     -0.00623 *
 * Zr       10      0.00100      0.00284     -0.00606 *
 * Zr       11      0.00053     -0.00893     -0.00550 *
 * Sn        1      0.01906      0.00803     -0.00404 *
 * Sn        2      0.01968     -0.00569      0.00699 *
 * Sn        3     -0.00827     -0.01132      0.00510 *
 * Sn        4      0.00344      0.00234      0.00727 *
 * Sn        5     -0.00157      0.00235      0.01288 *
 * La        1     -0.00101      0.00633     -0.00032 *
 * La        2      0.01362      0.00329      0.01405 *
 * La        3     -0.01151     -0.00599      0.00436 *
 * La        4     -0.00421      0.00156     -0.00361 *
 * La        5     -0.01352     -0.00304     -0.01410 *
 * La        6      0.00891      0.01168      0.00604 *
 * La        7      0.00859     -0.00216      0.01424 *
 * La        8     -0.00302      0.00652     -0.00136 *
 * La        9     -0.00994     -0.00552     -0.01318 *
 * La       10      0.00949      0.00738      0.00043 *
 * La       11      0.00849      0.00565      0.01506 *
 * La       12     -0.00596     -0.01054     -0.00797 *
 * La       13      0.00824     -0.00773     -0.00152 *
 * La       14     -0.01407     -0.00551     -0.01240 *
 * La       15      0.01422      0.01137      0.00484 *
 * La       16     -0.00454     -0.00048      0.00354 *
 *                                                    *
 ******************************************************
 
 ***************** Stress Tensor *****************
 *                                               *
 *          Cartesian components (GPa)           *
 * --------------------------------------------- *
 *             x             y             z     *
 *                                               *
 *  x     -0.003996     -0.004677      0.066494  *
 *  y     -0.004677      0.069480     -0.002279  *
 *  z      0.066494     -0.002279     -0.017344  *
 *                                               *
 *  Pressure:   -0.0160                          *
 *                                               *
 *************************************************
 
 Pseudo atomic calculation performed for O 2s2 2p4
 
 Converged in 39 iterations to a total energy of -432.6554 eV
 
 
 Pseudo atomic calculation performed for Zr 4s2 4p6 4d2 5s2
 
 Converged in 38 iterations to a total energy of -1285.4931 eV
 
 
 Pseudo atomic calculation performed for Sn 4d10 5s2 5p2
 
 Converged in 48 iterations to a total energy of -2044.5414 eV
 
 
 Pseudo atomic calculation performed for La 5s2 5p6 5d1 6s2
 
 Converged in 34 iterations to a total energy of -968.0372 eV
 
Charge spilling parameter for spin component 1 = 0.23%
 
     Atomic Populations (Mulliken)
     -----------------------------
Species   Ion     s      p      d      f     Total  Charge (e)
==============================================================
  O        1     1.87   5.00   0.00   0.00   6.87    -0.87
  O        2     1.87   5.00   0.00   0.00   6.87    -0.87
  O        3     1.87   5.00   0.00   0.00   6.87    -0.87
  O        4     1.87   5.00   0.00   0.00   6.87    -0.87
  O        5     1.87   5.00   0.00   0.00   6.87    -0.87
  O        6     1.87   5.00   0.00   0.00   6.87    -0.87
  O        7     1.87   5.00   0.00   0.00   6.87    -0.87
  O        8     1.87   5.00   0.00   0.00   6.87    -0.87
  O        9     1.86   4.94   0.00   0.00   6.80    -0.80
  O       10     1.85   4.94   0.00   0.00   6.80    -0.80
  O       11     1.88   5.02   0.00   0.00   6.90    -0.90
  O       12     1.87   4.99   0.00   0.00   6.85    -0.85
  O       13     1.88   5.02   0.00   0.00   6.91    -0.91
  O       14     1.86   4.94   0.00   0.00   6.80    -0.80
  O       15     1.87   4.99   0.00   0.00   6.85    -0.85
  O       16     1.87   4.99   0.00   0.00   6.85    -0.85
  O       17     1.87   4.98   0.00   0.00   6.85    -0.85
  O       18     1.87   4.99   0.00   0.00   6.85    -0.85
  O       19     1.87   4.99   0.00   0.00   6.85    -0.85
  O       20     1.86   4.94   0.00   0.00   6.80    -0.80
  O       21     1.87   4.99   0.00   0.00   6.85    -0.85
  O       22     1.88   5.02   0.00   0.00   6.90    -0.90
  O       23     1.86   4.94   0.00   0.00   6.80    -0.80
  O       24     1.86   4.94   0.00   0.00   6.80    -0.80
  O       25     1.87   4.99   0.00   0.00   6.85    -0.85
  O       26     1.87   4.99   0.00   0.00   6.85    -0.85
  O       27     1.86   4.94   0.00   0.00   6.80    -0.80
  O       28     1.87   4.99   0.00   0.00   6.85    -0.85
  O       29     1.87   4.99   0.00   0.00   6.85    -0.85
  O       30     1.87   4.98   0.00   0.00   6.85    -0.85
  O       31     1.86   4.94   0.00   0.00   6.80    -0.80
  O       32     1.88   5.02   0.00   0.00   6.90    -0.90
  O       33     1.87   4.99   0.00   0.00   6.85    -0.85
  O       34     1.87   4.99   0.00   0.00   6.85    -0.85
  O       35     1.86   4.94   0.00   0.00   6.80    -0.80
  O       36     1.87   4.99   0.00   0.00   6.85    -0.85
  O       37     1.87   4.99   0.00   0.00   6.85    -0.85
  O       38     1.86   4.94   0.00   0.00   6.80    -0.80
  O       39     1.86   4.95   0.00   0.00   6.80    -0.80
  O       40     1.86   4.94   0.00   0.00   6.80    -0.80
  O       41     1.87   4.98   0.00   0.00   6.85    -0.85
  O       42     1.87   4.99   0.00   0.00   6.85    -0.85
  O       43     1.87   4.99   0.00   0.00   6.85    -0.85
  O       44     1.86   4.94   0.00   0.00   6.80    -0.80
  O       45     1.86   4.95   0.00   0.00   6.80    -0.80
  O       46     1.86   4.94   0.00   0.00   6.80    -0.80
  O       47     1.86   4.94   0.00   0.00   6.80    -0.80
  O       48     1.87   4.99   0.00   0.00   6.85    -0.85
  O       49     1.86   4.95   0.00   0.00   6.80    -0.80
  O       50     1.87   4.98   0.00   0.00   6.85    -0.85
  O       51     1.86   4.94   0.00   0.00   6.80    -0.80
  O       52     1.86   4.95   0.00   0.00   6.80    -0.80
  O       53     1.86   4.94   0.00   0.00   6.80    -0.80
  O       54     1.86   4.94   0.00   0.00   6.80    -0.80
  O       55     1.86   4.94   0.00   0.00   6.80    -0.80
  O       56     1.87   4.99   0.00   0.00   6.85    -0.85
  Zr       1     2.38   6.49   1.92   0.00  10.79     1.21
  Zr       2     2.37   6.48   1.92   0.00  10.78     1.22
  Zr       3     2.38   6.48   1.93   0.00  10.78     1.22
  Zr       4     2.37   6.49   1.92   0.00  10.79     1.21
  Zr       5     2.37   6.48   1.92   0.00  10.78     1.22
  Zr       6     2.37   6.47   1.93   0.00  10.78     1.22
  Zr       7     2.37   6.50   1.92   0.00  10.80     1.20
  Zr       8     2.37   6.46   1.93   0.00  10.76     1.24
  Zr       9     2.37   6.48   1.93   0.00  10.78     1.22
  Zr      10     2.36   6.47   1.93   0.00  10.76     1.24
  Zr      11     2.37   6.48   1.93   0.00  10.77     1.23
  Sn       1     1.05   1.32  10.00   0.00  12.37     1.63
  Sn       2     1.05   1.32  10.00   0.00  12.37     1.63
  Sn       3     1.05   1.32  10.00   0.00  12.37     1.63
  Sn       4     1.05   1.32  10.00   0.00  12.37     1.63
  Sn       5     1.05   1.32  10.00   0.00  12.37     1.63
  La       1     2.03   6.13   1.19   0.00   9.36     1.64
  La       2     2.06   6.16   1.19   0.00   9.42     1.58
  La       3     2.04   6.15   1.19   0.00   9.39     1.61
  La       4     2.07   6.16   1.19   0.00   9.42     1.58
  La       5     2.07   6.16   1.19   0.00   9.42     1.58
  La       6     2.06   6.17   1.19   0.00   9.42     1.58
  La       7     2.05   6.14   1.19   0.00   9.39     1.61
  La       8     2.08   6.19   1.19   0.00   9.46     1.54
  La       9     2.07   6.17   1.19   0.00   9.43     1.57
  La      10     2.03   6.15   1.19   0.00   9.37     1.63
  La      11     2.06   6.16   1.19   0.00   9.42     1.58
  La      12     2.06   6.17   1.19   0.00   9.42     1.58
  La      13     2.03   6.15   1.19   0.00   9.37     1.63
  La      14     2.12   6.20   1.19   0.00   9.51     1.49
  La      15     2.10   6.17   1.19   0.00   9.46     1.54
  La      16     2.05   6.16   1.19   0.00   9.40     1.60
==============================================================
 
            Bond              Population      Length (A)
============================================================
         O 36 -- Sn 5              0.35        2.09815
         O 42 -- Sn 3              0.35        2.10041
         O 43 -- Sn 4              0.35        2.10121
         O 29 -- Sn 4              0.35        2.10149
         O 16 -- Sn 5              0.35        2.10179
         O 19 -- Sn 1              0.35        2.10410
         O 15 -- Sn 2              0.35        2.10416
         O 28 -- Sn 1              0.34        2.10496
         O 18 -- Sn 3              0.35        2.10518
         O 33 -- Sn 2              0.34        2.10527
         O 56 -- Sn 1              0.34        2.10575
         O 34 -- Sn 4              0.35        2.10575
         O 30 -- Sn 3              0.35        2.10581
         O 26 -- Sn 5              0.35        2.10615
         O 37 -- Sn 1              0.35        2.10644
         O 48 -- Sn 2              0.34        2.10660
         O 25 -- Sn 3              0.35        2.10666
         O 21 -- Sn 2              0.35        2.10787
         O 12 -- Sn 4              0.35        2.10826
         O 17 -- Sn 5              0.34        2.11003
         O 41 -- Sn 5              0.35        2.11013
         O 45 -- Zr 11             0.42        2.11137
         O 50 -- Sn 3              0.34        2.11143
         O 13 -- Sn 3              0.33        2.11212
         O 49 -- Zr 4              0.42        2.11246
         O 32 -- Sn 2              0.34        2.11271
         O 10 -- Zr 6              0.43        2.11322
         O 55 -- Zr 7              0.42        2.11330
         O 53 -- Zr 7              0.43        2.11341
         O 32 -- Sn 5              0.33        2.11369
         O 22 -- Sn 1              0.34        2.11435
         O 36 -- Zr 3              0.45        2.11442
         O 13 -- Sn 4              0.33        2.11461
         O 49 -- Zr 5              0.42        2.11494
         O 45 -- Zr 1              0.41        2.11502
         O 24 -- Zr 9              0.42        2.11565
         O 47 -- Zr 4              0.43        2.11572
         O 55 -- Zr 2              0.42        2.11625
         O 11 -- Sn 1              0.33        2.11639
         O 23 -- Zr 8              0.43        2.11646
         O 29 -- Zr 5              0.45        2.11656
         O 10 -- Zr 9              0.43        2.11665
         O 11 -- Sn 2              0.33        2.11684
         O 9  -- Zr 10             0.43        2.11689
         O 24 -- Zr 10             0.42        2.11690
         O 43 -- Zr 2              0.45        2.11712
         O 33 -- Zr 3              0.45        2.11714
         O 52 -- Zr 1              0.42        2.11717
         O 52 -- Zr 10             0.42        2.11732
         O 42 -- Zr 2              0.45        2.11758
         O 22 -- Sn 4              0.33        2.11773
         O 28 -- Zr 5              0.45        2.11779
         O 54 -- Zr 1              0.43        2.11786
         O 16 -- Zr 6              0.45        2.11799
         O 17 -- Zr 9              0.46        2.11823
         O 15 -- Zr 11             0.45        2.11872
         O 53 -- Zr 3              0.42        2.11878
         O 20 -- Zr 8              0.43        2.11914
         O 9  -- Zr 8              0.43        2.11926
         O 44 -- Zr 3              0.43        2.11933
         O 47 -- Zr 6              0.42        2.11947
         O 40 -- Zr 8              0.43        2.11971
         O 27 -- Zr 8              0.43        2.11986
         O 39 -- Zr 9              0.42        2.11986
         O 38 -- Zr 8              0.43        2.11989
         O 30 -- Zr 10             0.46        2.11993
         O 40 -- Zr 3              0.43        2.12013
         O 51 -- Zr 2              0.44        2.12025
         O 23 -- Zr 6              0.44        2.12027
         O 31 -- Zr 6              0.43        2.12034
         O 39 -- Zr 4              0.42        2.12035
         O 14 -- Zr 10             0.43        2.12047
         O 19 -- Zr 11             0.45        2.12055
         O 48 -- Zr 1              0.45        2.12125
         O 51 -- Zr 6              0.43        2.12137
         O 38 -- Zr 2              0.43        2.12159
         O 20 -- Zr 5              0.43        2.12161
         O 26 -- Zr 7              0.45        2.12183
         O 27 -- Zr 11             0.43        2.12192
         O 31 -- Zr 11             0.44        2.12222
         O 14 -- Zr 5              0.43        2.12222
         O 34 -- Zr 4              0.45        2.12286
         O 25 -- Zr 9              0.45        2.12295
         O 18 -- Zr 7              0.45        2.12311
         O 56 -- Zr 1              0.45        2.12316
         O 50 -- Zr 1              0.46        2.12322
         O 37 -- Zr 4              0.45        2.12324
         O 35 -- Zr 11             0.44        2.12339
         O 35 -- Zr 2              0.43        2.12367
         O 46 -- Zr 5              0.44        2.12390
         O 12 -- Zr 7              0.45        2.12418
         O 44 -- Zr 10             0.44        2.12476
         O 54 -- Zr 9              0.43        2.12478
         O 46 -- Zr 3              0.44        2.12515
         O 41 -- Zr 4              0.46        2.12615
         O 21 -- Zr 7              0.45        2.12622
         O 6  -- La 1              0.19        2.35957
         O 3  -- La 5              0.17        2.36013
         O 2  -- La 2              0.19        2.36042
         O 1  -- La 10             0.18        2.36063
         O 6  -- La 9              0.18        2.36067
         O 8  -- La 5              0.19        2.36094
         O 2  -- La 7              0.17        2.36106
         O 8  -- La 4              0.17        2.36115
         O 7  -- La 7              0.17        2.36117
         O 4  -- La 4              0.16        2.36118
         O 1  -- La 1              0.20        2.36121
         O 2  -- La 13             0.18        2.36134
         O 3  -- La 3              0.17        2.36139
         O 7  -- La 16             0.19        2.36140
         O 1  -- La 15             0.18        2.36156
         O 1  -- La 11             0.17        2.36156
         O 5  -- La 2              0.16        2.36171
         O 6  -- La 12             0.17        2.36172
         O 7  -- La 3              0.20        2.36174
         O 8  -- La 10             0.18        2.36181
         O 4  -- La 6              0.19        2.36183
         O 8  -- La 13             0.18        2.36184
         O 7  -- La 11             0.17        2.36184
         O 4  -- La 16             0.17        2.36188
         O 5  -- La 6              0.18        2.36255
         O 5  -- La 15             0.15        2.36290
         O 4  -- La 9              0.17        2.36297
         O 2  -- La 12             0.18        2.36340
         O 3  -- La 8              0.18        2.36365
         O 6  -- La 14             0.17        2.36379
         O 5  -- La 8              0.18        2.36440
         O 3  -- La 14             0.15        2.36526
         O 46 -- La 15             0.13        2.65890
         O 51 -- La 14             0.13        2.65954
         O 47 -- La 11             0.11        2.66263
         O 53 -- La 9              0.13        2.66294
         O 45 -- La 5              0.13        2.66325
         O 49 -- La 12             0.12        2.66347
         O 54 -- La 7              0.12        2.66395
         O 55 -- La 10             0.12        2.66618
         O 40 -- La 4              0.13        2.66765
         O 24 -- La 10             0.13        2.66819
         O 39 -- La 8              0.14        2.66830
         O 9  -- La 11             0.12        2.66892
         O 38 -- La 4              0.13        2.66923
         O 52 -- La 2              0.12        2.66940
         O 35 -- La 16             0.13        2.66961
         O 11 -- La 14             0.24        2.66963
         O 10 -- La 7              0.11        2.66970
         O 10 -- La 13             0.13        2.66974
         O 22 -- La 14             0.24        2.67022
         O 32 -- La 14             0.24        2.67111
         O 14 -- La 16             0.13        2.67122
         O 43 -- La 14             0.17        2.67143
         O 23 -- La 11             0.12        2.67152
         O 52 -- La 6              0.14        2.67170
         O 20 -- La 7              0.12        2.67195
         O 54 -- La 3              0.14        2.67212
         O 31 -- La 5              0.13        2.67215
         O 45 -- La 3              0.13        2.67277
         O 44 -- La 13             0.13        2.67299
         O 44 -- La 2              0.13        2.67302
         O 55 -- La 1              0.13        2.67311
         O 24 -- La 13             0.12        2.67369
         O 53 -- La 1              0.13        2.67373
         O 27 -- La 12             0.13        2.67385
         O 34 -- La 11             0.16        2.67396
         O 31 -- La 13             0.12        2.67469
         O 23 -- La 7              0.12        2.67496
         O 49 -- La 1              0.13        2.67533
         O 29 -- La 15             0.17        2.67538
         O 20 -- La 12             0.13        2.67550
         O 12 -- La 9              0.18        2.67631
         O 27 -- La 9              0.13        2.67636
         O 13 -- La 15             0.24        2.67641
         O 38 -- La 10             0.13        2.67650
         O 25 -- La 15             0.18        2.67767
         O 39 -- La 3              0.13        2.67771
         O 47 -- La 1              0.14        2.67794
         O 16 -- La 14             0.18        2.67811
         O 40 -- La 9              0.13        2.67816
         O 26 -- La 5              0.18        2.67839
         O 48 -- La 4              0.17        2.67842
         O 15 -- La 12             0.18        2.67850
         O 19 -- La 9              0.18        2.67869
         O 56 -- La 2              0.19        2.67881
         O 37 -- La 8              0.19        2.67899
         O 36 -- La 15             0.17        2.67919
         O 33 -- La 4              0.17        2.67925
         O 21 -- La 8              0.19        2.67928
         O 9  -- La 10             0.13        2.67932
         O 17 -- La 15             0.18        2.67943
         O 14 -- La 6              0.14        2.67951
         O 42 -- La 4              0.17        2.67967
         O 41 -- La 12             0.18        2.67969
         O 35 -- La 3              0.13        2.68012
         O 30 -- La 11             0.17        2.68014
         O 13 -- La 11             0.23        2.68022
         O 56 -- La 7              0.17        2.68048
         O 28 -- La 16             0.18        2.68054
         O 50 -- La 4              0.18        2.68098
         O 26 -- La 10             0.17        2.68111
         O 18 -- La 8              0.19        2.68122
         O 11 -- La 8              0.24        2.68142
         O 42 -- La 16             0.18        2.68152
         O 18 -- La 5              0.18        2.68187
         O 28 -- La 7              0.17        2.68209
         O 19 -- La 16             0.17        2.68227
         O 37 -- La 2              0.17        2.68230
         O 12 -- La 6              0.19        2.68286
         O 32 -- La 12             0.23        2.68291
         O 22 -- La 9              0.24        2.68381
         O 33 -- La 13             0.18        2.68391
         O 46 -- La 1              0.13        2.68411
         O 36 -- La 2              0.18        2.68456
         O 48 -- La 6              0.19        2.68482
         O 50 -- La 5              0.19        2.68502
         O 15 -- La 13             0.16        2.68512
         O 21 -- La 6              0.18        2.68517
         O 34 -- La 3              0.19        2.68539
         O 41 -- La 2              0.18        2.68551
         O 30 -- La 16             0.17        2.68729
         O 29 -- La 6              0.19        2.68736
         O 51 -- La 1              0.13        2.68893
         O 17 -- La 10             0.18        2.69122
         O 43 -- La 3              0.18        2.69234
         O 25 -- La 8              0.18        2.69297
         O 16 -- La 5              0.18        2.69325
         O 13 -- O 29             -0.06        2.79633
         O 33 -- O 48             -0.06        2.79653
         O 22 -- O 43             -0.06        2.79696
         O 17 -- O 36             -0.06        2.79702
         O 42 -- O 50             -0.06        2.79722
         O 28 -- O 56             -0.06        2.79725
         O 13 -- O 34             -0.06        2.79739
         O 15 -- O 33             -0.06        2.79960
         O 37 -- O 56             -0.06        2.79964
         O 11 -- O 32             -0.05        2.79979
         O 16 -- O 32             -0.06        2.79991
         O 11 -- O 22             -0.05        2.80041
         O 36 -- O 41             -0.06        2.80070
         O 15 -- O 32             -0.06        2.80087
         O 16 -- O 26             -0.06        2.80116
         O 19 -- O 28             -0.06        2.80137
         O 13 -- O 25             -0.06        2.80141
         O 12 -- O 29             -0.06        2.80329
         O 13 -- O 30             -0.06        2.80349
         O 19 -- O 22             -0.06        2.80401
         O 30 -- O 42             -0.06        2.80424
         O 18 -- O 50             -0.06        2.80681
         O 12 -- O 22             -0.06        2.80690
         O 34 -- O 43             -0.06        2.80714
         O 21 -- O 48             -0.06        2.80855
         O 10 -- O 54             -0.04        2.80860
         O 23 -- O 47             -0.04        2.80880
         O 17 -- O 26             -0.06        2.80925
         O 11 -- O 21             -0.05        2.80949
         O 38 -- O 55             -0.03        2.81074
         O 32 -- O 41             -0.05        2.81156
         O 20 -- O 49             -0.03        2.81161
         O 10 -- O 24             -0.03        2.81164
         O 10 -- O 23             -0.03        2.81175
         O 38 -- O 40             -0.04        2.81187
         O 31 -- O 45             -0.03        2.81257
         O 34 -- O 47             -0.03        2.81289
         O 11 -- O 37             -0.05        2.81302
         O 40 -- O 53             -0.03        2.81314
         O 9  -- O 24             -0.03        2.81335
         O 18 -- O 25             -0.06        2.81381
         O 53 -- O 55             -0.03        2.81425
         O 9  -- O 23             -0.03        2.81431
         O 29 -- O 46             -0.03        2.81449
         O 26 -- O 55             -0.03        2.81494
         O 36 -- O 46             -0.03        2.81507
         O 10 -- O 31             -0.03        2.81529
         O 20 -- O 23             -0.03        2.81533
         O 41 -- O 49             -0.03        2.81598
         O 43 -- O 51             -0.03        2.81643
         O 35 -- O 42             -0.03        2.81660
         O 47 -- O 49             -0.03        2.81667
         O 54 -- O 56             -0.03        2.81687
         O 16 -- O 51             -0.03        2.81694
         O 12 -- O 53             -0.03        2.81703
         O 38 -- O 42             -0.03        2.81740
         O 45 -- O 54             -0.03        2.81750
         O 15 -- O 27             -0.03        2.81786
         O 33 -- O 40             -0.03        2.81816
         O 9  -- O 30             -0.03        2.81831
         O 37 -- O 39             -0.03        2.81879
         O 24 -- O 44             -0.03        2.81885
         O 14 -- O 28             -0.03        2.81941
         O 52 -- O 56             -0.03        2.81944
         O 44 -- O 52             -0.03        2.81953
         O 20 -- O 28             -0.03        2.81988
         O 45 -- O 50             -0.03        2.82058
         O 19 -- O 27             -0.03        2.82150
         O 39 -- O 54             -0.03        2.82164
         O 36 -- O 44             -0.03        2.82194
         O 35 -- O 45             -0.03        2.82273
         O 14 -- O 52             -0.03        2.82281
         O 17 -- O 24             -0.03        2.82307
         O 18 -- O 26             -0.03        2.82420
         O 33 -- O 44             -0.03        2.82443
         O 46 -- O 49             -0.03        2.82472
         O 27 -- O 40             -0.03        2.82473
         O 19 -- O 35             -0.03        2.82480
         O 18 -- O 21             -0.03        2.82502
         O 48 -- O 52             -0.03        2.82529
         O 51 -- O 55             -0.03        2.82531
         O 20 -- O 27             -0.03        2.82539
         O 46 -- O 53             -0.03        2.82619
         O 48 -- O 50             -0.03        2.82627
         O 9  -- O 38             -0.03        2.82646
         O 15 -- O 31             -0.03        2.82707
         O 17 -- O 25             -0.03        2.82732
         O 14 -- O 30             -0.03        2.82782
         O 47 -- O 51             -0.03        2.82837
         O 34 -- O 39             -0.03        2.82863
         O 25 -- O 39             -0.03        2.83118
         O 16 -- O 31             -0.03        2.83129
         O 14 -- O 29             -0.03        2.83226
         O 35 -- O 43             -0.03        2.83271
         O 12 -- O 21             -0.03        2.83612
         O 37 -- O 41             -0.03        2.83652
============================================================
 

Writing analysis data to Zr11_10_nmr.castep_bin

Writing model to Zr11_10_nmr.check
 
 A BibTeX formatted list of references used in this run has been written to 
 Zr11_10_nmr.bib
 
Initialisation time =     35.25 s
Calculation time    =   4312.56 s
Finalisation time   =      7.70 s
Total time          =   4355.50 s
Peak Memory Use     = 1430652 kB
  
Overall parallel efficiency rating: Good (70%)                                  
  
Data was distributed by:-
G-vector (24-way); efficiency rating: Good (72%)                                
k-point (14-way); efficiency rating: Excellent (95%)                            
