 +-------------------------------------------------+
 |                                                 |
 |      CCC   AA    SSS  TTTTT  EEEEE  PPPP        |
 |     C     A  A  S       T    E      P   P       |
 |     C     AAAA   SS     T    EEE    PPPP        |
 |     C     A  A     S    T    E      P           |
 |      CCC  A  A  SSS     T    EEEEE  P           |
 |                                                 |
 +-------------------------------------------------+
 |                                                 |
 | Welcome to Academic Release CASTEP version 16.11|          
 | Ab Initio Total Energy Program                  |
 |                                                 |
 | Authors:                                        |
 | M. Segall, M. Probert, C. Pickard, P. Hasnip,   |
 | S. Clark, K. Refson, J. R. Yates, M. Payne      |
 |                                                 |
 | Contributors:                                   |
 | P. Lindan, P. Haynes, J. White, V. Milman,      |
 | N. Govind, M. Gibson, P. Tulip, V. Cocula,      |
 | B. Montanari, D. Quigley, M. Glover,            |
 | L. Bernasconi, A. Perlov, M. Plummer,           |
 | E. McNellis, J. Meyer, J. Gale, D. Jochym       |
 | J. Aarons, B. Walker, R. Gillen, D. Jones       |
 | T. Green, I. J. Bush, C. J. Armstrong,          |
 | E. J. Higgins, E. L. Brown, M. S. McFly         |
 |                                                 |
 | Copyright (c) 2000 - 2015                       |
 |                                                 |
 |     Distributed under the terms of an           |
 |     Agreement between the United Kingdom        |
 |     Car-Parrinello (UKCP) Consortium,           |
 |     Daresbury Laboratory and Accelrys, Inc.     |
 |                                                 |
 | Please cite                                     |
 |                                                 |
 |     "First principles methods using CASTEP"     |
 |                                                 |
 |         Zeitschrift fuer Kristallographie       |
 |           220(5-6) pp. 567-570 (2005)           |
 |                                                 |
 | S. J. Clark, M. D. Segall, C. J. Pickard,       |
 | P. J. Hasnip, M. J. Probert, K. Refson,         |
 | M. C. Payne                                     |
 |                                                 |
 |       in all publications arising from          |
 |              your use of CASTEP                 |
 |                                                 |
 +-------------------------------------------------+
 
 
 Compiled for linux_x86_64_ifort17 on Mon, 09 Apr 2018 23:35:31 +0100
 from code version 
 203e84763863+ Castep161_branch Fri, 04 Mar 2016 19:21:07 +0000
 Compiler: Intel Fortran 17.0.1.132; Optimisation: fast
 MATHLIBS: Intel MKL(2017.0.1) (LAPACK version 3.6.0)
 FFT Lib : mkl
 Fundamental constants values: CODATA 2010
 
 Run started: Fri, 11 Sep 2020 03:30:13 +0100
 +-------------------------------------------------+
 |                                                 |
 |           N   N    M   M    RRRR                |
 |           NN  N    MM MM    R   R               |
 |           N N N    M M M    RRRR                |
 |           N  NN    M   M    R  R                |
 |           N   N    M   M    R   R               |
 |                                                 |
 +-------------------------------------------------+
 |                                                 |
 | Welcome to Materials Studio CASTEP-NMR          |
 |                                                 |
 | Authors:                                        |
 | J.R. Yates, C.J. Pickard, F. Mauri              |
 |                                                 |
 | Contributors:                                   |
 | T.F.G. Green, S.A. Joyce                        |
 |                                                 |
 | Copyright (c) 2004 - 2015                       |
 |                                                 |
 | Please cite the appropriate publications in all |
 | work arising from your use of CASTEP NMR.       |
 |                                                 |
 | For NMR Shielding Tensors cite:                 |
 |    "All-electron magnetic response with         |
 |    pseudopotentials: NMR chemical shifts",      |
 |    C. J. Pickard, F. Mauri;                     |
 |    Physical Review B63 245101 (2001), and       |
 |                                                 |
 |    "Calculation of NMR Chemical Shifts          |
 |    for extended systems using                   |
 |    Ultrasoft Pseudopotentials",                 |
 |    J. R. Yates, C. J. Pickard and F. Mauri      |
 |    Physical Review B76 024401 (2007)            |
 |                                                 |
 | For Electric Field Gradients cite:              |
 |   "Accurate First Principles Prediction of 17O  |
 |    NMR Parameters in SiO2: Assignment of the    |
 |    Zeolite Ferrierite Spectrum"                 |
 |    M. Profeta, F. Mauri and C. J. Pickard       |
 |    J. Amer. Chem. Soc. 125 541 (2003)           |
 |                                                 |
 | For Spin-Spin (J) Couplings cite:               |
 |   "A first principles theory of NMR J-coupling  |
 |   in solid-state systems"                       |
 |   S.A. Joyce, J.R. Yates, C.J. Pickard, F. Mauri|
 |   J. Chem. Phys. 127 204107 (2007)              |
 |                                                 |
 |   "Relativistic NMR J-coupling with ultrasoft   |
 |   pseudopotentials and the zeroth-order regular |
 |   approximation"                                |
 |   T.F.G. Green and J.R. Yates                   |
 |   J. Chem. Phys. 140 234106 (2014)              |
 |                                                 |
 +-------------------------------------------------+
 
 
 Atomic calculation performed for O: 1s2 2s2 2p4
 
 Converged in 44 iterations to an ae energy of -2040.855 eV
 
 
 Atomic calculation performed for O: 1s2 2s2 2p4
 
 Exceeded max iterations: converged to 0.000000062 eV
 
   ============================================================                
   | Pseudopotential Report - Date of generation 11-09-2020   |                
   ------------------------------------------------------------                
   | Element: O Ionic charge:  6.00 Level of theory: PBE      |                
   | Atomic Solver: ZORA (scalar)                             |                
   |                                                          |                
   |               Reference Electronic Structure             |                
   |         Orbital         Occupation         Energy        |                
   |            2s              2.000           -0.881        |                
   |            2p              4.000           -0.332        |                
   |                                                          |                
   |                 Pseudopotential Definition               |                
   |        Beta     l      e      Rc     scheme   norm       |                
   |          1      0   -0.881   1.100     qc      0         |                
   |          2      0    0.250   1.100     qc      0         |                
   |          3      1   -0.332   1.100     qc      0         |                
   |          4      1    0.250   1.100     qc      0         |                
   |         loc     2    0.000   1.100     pn      0         |                
   |                                                          |                
   | Augmentation charge Rinner = 0.769                       |                
   | Partial core correction Rc = 0.769                       |                
   ------------------------------------------------------------                
   | "2|1.1|15|18|20|20:21(qc=7)"                             |                
   ------------------------------------------------------------                
   |      Author: Chris J. Pickard, Cambridge University      |                
   ============================================================                
 
 Atomic calculation performed for Zr: 1s2 2s2 2p6 3s2 3p6 3d10 4s2 4p6 4d2 5s2
 
 Converged in 53 iterations to an ae energy of -97719.888 eV
 
 
 Atomic calculation performed for Zr: 1s2 2s2 2p6 3s2 3p6 3d10 4s2 4p6 4d2 5s2
 
 Exceeded max iterations: converged to 0.000000970 eV
 
 Warning: ion_atom_descreen_psp: negative charge density encountered
   ============================================================                
   | Pseudopotential Report - Date of generation 11-09-2020   |                
   ------------------------------------------------------------                
   | Element: Zr Ionic charge: 12.00 Level of theory: PBE     |                
   | Atomic Solver: ZORA (scalar)                             |                
   |                                                          |                
   |               Reference Electronic Structure             |                
   |         Orbital         Occupation         Energy        |                
   |            4s              2.000           -2.003        |                
   |            4p              6.000           -1.193        |                
   |            5s              2.000           -0.163        |                
   |            4d              2.000           -0.132        |                
   |                                                          |                
   |                 Pseudopotential Definition               |                
   |        Beta     l      e      Rc     scheme   norm       |                
   |          1      0   -2.003   2.105     qc      0         |                
   |          2      0   -0.163   2.105     qc      0         |                
   |          3      0    0.250   2.105     qc      0         |                
   |          4      1   -1.193   2.105     qc      0         |                
   |          5      1    0.250   2.105     qc      0         |                
   |          6      2   -0.132   2.105     qc      0         |                
   |          7      2    0.250   2.105     qc      0         |                
   |         loc     3    0.000   2.105     pn      0         |                
   |                                                          |                
   | Augmentation charge Rinner = 1.471                       |                
   | Partial core correction Rc = 1.471                       |                
   ------------------------------------------------------------                
   | "3|2.1|7|8|9|40U:50:41:42"                               |                
   ------------------------------------------------------------                
   |      Author: Chris J. Pickard, Cambridge University      |                
   ============================================================                
 
 Atomic calculation performed for Sn:
 1s2 2s2 2p6 3s2 3p6 3d10 4s2 4p6 4d10 5s2 5p2
 
 Converged in 58 iterations to an ae energy of -167539.320 eV
 
 
 Atomic calculation performed for Sn:
 1s2 2s2 2p6 3s2 3p6 3d10 4s2 4p6 4d10 5s2 5p2
 
 Exceeded max iterations: converged to 0.000001154 eV
 
   ============================================================                
   | Pseudopotential Report - Date of generation 11-09-2020   |                
   ------------------------------------------------------------                
   | Element: Sn Ionic charge: 14.00 Level of theory: PBE     |                
   | Atomic Solver: ZORA (scalar)                             |                
   |                                                          |                
   |               Reference Electronic Structure             |                
   |         Orbital         Occupation         Energy        |                
   |            4d             10.000           -0.950        |                
   |            5s              2.000           -0.388        |                
   |            5p              2.000           -0.136        |                
   |                                                          |                
   |                 Pseudopotential Definition               |                
   |        Beta     l      e      Rc     scheme   norm       |                
   |          1      0   -0.388   2.199     qc      0         |                
   |          2      0    0.250   2.199     qc      0         |                
   |          3      1   -0.136   2.199     qc      0         |                
   |          4      1    0.250   2.199     qc      0         |                
   |          5      2   -0.950   2.199     qc      0         |                
   |          6      2    0.250   2.199     qc      0         |                
   |         loc     3    0.000   2.199     pn      0         |                
   |                                                          |                
   | Augmentation charge Rinner = 1.537                       |                
   | Partial core correction Rc = 1.537                       |                
   ------------------------------------------------------------                
   | "3|2.2|7|8|9|50:51:42"                                   |                
   ------------------------------------------------------------                
   |      Author: Chris J. Pickard, Cambridge University      |                
   ============================================================                
 
 Atomic calculation performed for La:
 1s2 2s2 2p6 3s2 3p6 3d10 4s2 4p6 4d10 5s2 5p6 5d1 6s2
 
 Converged in 56 iterations to an ae energy of -230121.495 eV
 
 
 Atomic calculation performed for La:
 1s2 2s2 2p6 3s2 3p6 3d10 4s2 4p6 4d10 5s2 5p6 5d1 6s2
 
 Exceeded max iterations: converged to 0.000000907 eV
 
 Warning: ion_atom_descreen_psp: negative charge density encountered
   ============================================================                
   | Pseudopotential Report - Date of generation 11-09-2020   |                
   ------------------------------------------------------------                
   | Element: La Ionic charge: 11.00 Level of theory: PBE     |                
   | Atomic Solver: ZORA (scalar)                             |                
   |                                                          |                
   |               Reference Electronic Structure             |                
   |         Orbital         Occupation         Energy        |                
   |            5s              2.000           -1.430        |                
   |            5p              6.000           -0.823        |                
   |            6s              2.000           -0.135        |                
   |            5d              1.000           -0.114        |                
   |                                                          |                
   |                 Pseudopotential Definition               |                
   |        Beta     l      e      Rc     scheme   norm       |                
   |          1      0   -1.430   2.298     qc      0         |                
   |          2      0   -0.135   2.298     qc      0         |                
   |          3      0    0.250   2.298     qc      0         |                
   |          4      1   -0.823   2.298     qc      0         |                
   |          5      1    0.250   2.298     qc      0         |                
   |          6      2   -0.114   2.298     qc      0         |                
   |          7      2    0.250   2.298     qc      0         |                
   |         loc     2    0.000   2.298     pn      0         |                
   |                                                          |                
   | Augmentation charge Rinner = 1.606                       |                
   | Partial core correction Rc = 1.606                       |                
   ------------------------------------------------------------                
   | "2|2.3|5|6|7|50U:60:51:52(qc=4.5)"                       |                
   ------------------------------------------------------------                
   |      Author: Chris J. Pickard, Cambridge University      |                
   ============================================================                
 
 Pseudo atomic calculation performed for O 2s2 2p4
 
 Converged in 39 iterations to a total energy of -432.6554 eV
 
 
 Pseudo atomic calculation performed for Zr 4s2 4p6 4d2 5s2
 
 Converged in 38 iterations to a total energy of -1285.4931 eV
 
 
 Pseudo atomic calculation performed for Sn 4d10 5s2 5p2
 
 Converged in 48 iterations to a total energy of -2044.5414 eV
 
 
 Pseudo atomic calculation performed for La 5s2 5p6 5d1 6s2
 
 Converged in 34 iterations to a total energy of -968.0372 eV
 
 Calculation parallelised over 336 processes.
 Data is distributed by G-vector(24-way) and k-point(14-way)

 ************************************ Title ************************************
 nmr testing

 ***************************** General Parameters ******************************
  
 output verbosity                               : normal  (1)
 write checkpoint data to                       : Zr11_11_nmr.check
 type of calculation                            : Magnetic Resonance
 stress calculation                             : on
 density difference calculation                 : off
 electron localisation func (ELF) calculation   : off
 Hirshfeld analysis                             : off
 unlimited duration calculation
 timing information                             : on
 memory usage estimate                          : on
 write final potential to formatted file        : off
 write final density to formatted file          : off
 write BibTeX reference list                    : on
 write OTFG pseudopotential files               : on
 checkpoint writing                             : both castep_bin and check files
  
 output         length unit                     : A
 output           mass unit                     : amu
 output           time unit                     : ps
 output         charge unit                     : e
 output           spin unit                     : hbar/2
 output         energy unit                     : eV
 output          force unit                     : eV/A
 output       velocity unit                     : A/ps
 output       pressure unit                     : GPa
 output     inv_length unit                     : 1/A
 output      frequency unit                     : cm-1
 output force constant unit                     : eV/A**2
 output         volume unit                     : A**3
 output   IR intensity unit                     : (D/A)**2/amu
 output         dipole unit                     : D
 output         efield unit                     : eV/A/e
 output        entropy unit                     : J/mol/K
  
 wavefunctions paging                           : none
 random number generator seed                   : randomised (33013339)
 data distribution                              : optimal for this architecture
 optimization strategy                          : maximize speed(+++)

 *********************** Exchange-Correlation Parameters ***********************
  
 using functional                               : Perdew Burke Ernzerhof
 relativistic treatment                         : ZORA
 DFT+D: Semi-empirical dispersion correction    : off

 ************************* Pseudopotential Parameters **************************
  
 pseudopotential representation                 : reciprocal space
 <beta|phi> representation                      : reciprocal space
 spin-orbit coupling                            : off

 **************************** Basis Set Parameters *****************************
  
 plane wave basis set cut-off                   :   816.3416   eV
 size of standard grid                          :     1.7500
 size of   fine   gmax                          :    25.6161   1/A
 finite basis set correction                    : automatic
 number of sample energies                      :          3
           sample  spacing                      :     5.0000   eV

 **************************** Electronic Parameters ****************************
  
 number of  electrons                           :  714.0    
 net charge of system                           :  0.000    
 treating system as non-spin-polarized
 number of bands                                :        428

 ********************* Electronic Minimization Parameters **********************
  
 Method: Treating system as metallic with density mixing treatment of electrons,
         and number of  SD  steps               :          1
         and number of  CG  steps               :          4
  
 total energy / atom convergence tol.           : 0.1000E-08   eV
 eigen-energy convergence tolerance             : 0.2465E-09   eV
 max force / atom convergence tol.              : ignored
 convergence tolerance window                   :          3   cycles
 max. number of SCF cycles                      :         50
 number of fixed-spin iterations                :         10
 smearing scheme                                : Gaussian
 smearing width                                 : 0.2000       eV
 Fermi energy convergence tolerance             : 0.2721E-13   eV
 periodic dipole correction                     : NONE

 ************************** Density Mixing Parameters **************************
  
 density-mixing scheme                          : Broyden
 max. length of mixing history                  :         20
 charge density mixing amplitude                : 0.8000    
 cut-off energy for mixing                      :  816.3       eV

 *********************** Population Analysis Parameters ************************
  
 Population analysis with cutoff                :  3.000       A

 ************************ Magnetic Resonance Parameters ************************
  
 Magnetic Resonance Property                    : Chemical Shielding + EFG
 Position Operator Method                       : crystal
 max. number of MagRes CG steps                 :        250
 convergence tolerance window                   :          2   cycles
 energy convergence tolerance                   : 0.1000E-11   eV
 band convergence tolerance                     : 0.1000E-08   eV

 *******************************************************************************
  
 
                           -------------------------------
                                      Unit Cell
                           -------------------------------
        Real Lattice(A)                      Reciprocal Lattice(1/A)
  10.9047203   0.0019347  -0.0014444        0.5761895  -0.0001019   0.0000763
   0.0019313  10.9165790   0.0019313       -0.0001021   0.5755636  -0.0001021
  -0.0014444   0.0019348  10.9047205        0.0000763  -0.0001020   0.5761895
 
                       Lattice parameters(A)       Cell Angles
                    a =   10.904721          alpha =   89.979699
                    b =   10.916579          beta  =   90.015177
                    c =   10.904721          gamma =   89.979700
 
                       Current cell volume = 1298.122263       A**3
 
                           -------------------------------
                                     Cell Contents
                           -------------------------------
                         Total number of ions in cell =   88
                      Total number of species in cell =    4
                        Max number of any one species =   56
 
            xxxxxxxxxxxxxxxxxxxxxxxxxxxxxxxxxxxxxxxxxxxxxxxxxxxxxxxxxxxx
            x  Element    Atom        Fractional coordinates of atoms  x
            x            Number           u          v          w      x
            x----------------------------------------------------------x
            x  O            1         0.125014   0.124828   0.125014   x 
            x  O            2         0.624907   0.125245   0.624907   x 
            x  O            3         0.125213   0.625013   0.624940   x 
            x  O            4         0.624940   0.625013   0.125213   x 
            x  O            5         0.875070   0.374900   0.375032   x 
            x  O            6         0.875018   0.875310   0.875018   x 
            x  O            7         0.375032   0.374900   0.875070   x 
            x  O            8         0.375060   0.875033   0.375060   x 
            x  O            9         0.419869   0.125467   0.124506   x 
            x  O           10         0.330081   0.124285   0.624430   x 
            x  O           11         0.830522   0.625021   0.625550   x 
            x  O           12         0.920479   0.624578   0.124156   x 
            x  O           13         0.124586   0.419634   0.124586   x 
            x  O           14         0.624545   0.329688   0.124352   x 
            x  O           15         0.624975   0.830455   0.624975   x 
            x  O           16         0.125131   0.920389   0.624902   x 
            x  O           17         0.124506   0.125467   0.419869   x 
            x  O           18         0.124944   0.624242   0.329268   x 
            x  O           19         0.625550   0.625021   0.830522   x 
            x  O           20         0.625174   0.124923   0.919898   x 
            x  O           21         0.874643   0.670917   0.376230   x 
            x  O           22         0.874767   0.580659   0.874767   x 
            x  O           23         0.375004   0.080224   0.874984   x 
            x  O           24         0.374932   0.169600   0.374932   x 
            x  O           25         0.171041   0.375276   0.373539   x 
            x  O           26         0.080412   0.874618   0.375054   x 
            x  O           27         0.579022   0.873935   0.874007   x 
            x  O           28         0.670755   0.376191   0.874470   x 
            x  O           29         0.876149   0.375341   0.079415   x 
            x  O           30         0.373539   0.375276   0.171041   x 
            x  O           31         0.376456   0.874334   0.671048   x 
            x  O           32         0.874007   0.873935   0.579022   x 
            x  O           33         0.671048   0.874334   0.376456   x 
            x  O           34         0.079415   0.375341   0.876149   x 
            x  O           35         0.376230   0.670917   0.874643   x 
            x  O           36         0.874984   0.080224   0.375004   x 
            x  O           37         0.874470   0.376191   0.670755   x 
            x  O           38         0.375054   0.874618   0.080412   x 
            x  O           39         0.124352   0.329688   0.624545   x 
            x  O           40         0.624902   0.920389   0.125131   x 
            x  O           41         0.919898   0.124923   0.625174   x 
            x  O           42         0.329268   0.624242   0.124944   x 
            x  O           43         0.124156   0.624578   0.920479   x 
            x  O           44         0.624430   0.124285   0.330081   x 
            x  O           45         0.420174   0.625558   0.624876   x 
            x  O           46         0.830237   0.125640   0.125459   x 
            x  O           47         0.125459   0.125640   0.830237   x 
            x  O           48         0.624876   0.625558   0.420174   x 
            x  O           49         0.875008   0.169370   0.875008   x 
            x  O           50         0.374233   0.579065   0.374233   x 
            x  O           51         0.169747   0.874631   0.874776   x 
            x  O           52         0.580348   0.374901   0.375190   x 
            x  O           53         0.874776   0.874631   0.169747   x 
            x  O           54         0.375190   0.374901   0.580348   x 
            x  O           55         0.125003   0.830982   0.125003   x 
            x  O           56         0.625505   0.420061   0.625505   x 
            x  Zr           1         0.500108   0.500005   0.500108   x 
            x  Zr           2         0.249619   0.750089   0.000158   x 
            x  Zr           3         0.750301  -0.000263   0.251077   x 
            x  Zr           4        -0.000512   0.250668   0.751174   x 
            x  Zr           5         0.751174   0.250668  -0.000512   x 
            x  Zr           6         0.251077  -0.000263   0.750301   x 
            x  Zr           7         0.000158   0.750089   0.249619   x 
            x  Zr           8         0.499802  -0.000310  -0.000350   x 
            x  Zr           9         0.250120   0.250108   0.499408   x 
            x  Zr          10         0.499408   0.250108   0.250120   x 
            x  Zr          11        -0.000350  -0.000310   0.499802   x 
            x  Sn           1         0.749603   0.500535   0.749603   x 
            x  Sn           2         0.748914   0.748857   0.501255   x 
            x  Sn           3         0.249023   0.500389   0.249023   x 
            x  Sn           4        -0.000174   0.500082  -0.000174   x 
            x  Sn           5         0.501255   0.748857   0.748914   x 
            x  La           1         0.000073  -0.000036   0.000073   x 
            x  La           2         0.749950   0.249959   0.499945   x 
            x  La           3         0.250168   0.499767   0.749696   x 
            x  La           4         0.499881   0.750192   0.249805   x 
            x  La           5         0.249805   0.750192   0.499881   x 
            x  La           6         0.749696   0.499767   0.250168   x 
            x  La           7         0.499945   0.249959   0.749950   x 
            x  La           8         0.000222   0.499800   0.500073   x 
            x  La           9         0.750207   0.750522   0.000598   x 
            x  La          10         0.249889  -0.000207   0.249889   x 
            x  La          11         0.250051   0.249406  -0.000247   x 
            x  La          12         0.750244   0.000730   0.750244   x 
            x  La          13         0.499815   0.000518   0.499815   x 
            x  La          14         0.000598   0.750522   0.750207   x 
            x  La          15        -0.000247   0.249406   0.250051   x 
            x  La          16         0.500073   0.499800   0.000222   x 
            xxxxxxxxxxxxxxxxxxxxxxxxxxxxxxxxxxxxxxxxxxxxxxxxxxxxxxxxxxxx
 
 
                         No user defined ionic velocities
 
                           -------------------------------
                                   Details of Species
                           -------------------------------
 
                               Mass of species in AMU
                                    O   15.9994000
                                    Zr   91.2240000
                                    Sn  118.7100000
                                    La  138.9055000
 
                          Electric Quadrupole Moment (Barn)
                                    O   -0.0255800 Isotope 17
                                    Zr   -0.1760000 Isotope 91
                                    Sn    1.0000000 No Isotope Defined
                                    La    0.2000000 Isotope139
 
                          Files used for pseudopotentials:
                                    O 2|1.1|15|18|20|20:21(qc=7)
                                    Zr 3|2.1|7|8|9|40U:50:41:42
                                    Sn 3|2.2|7|8|9|50:51:42
                                    La 2|2.3|5|6|7|50U:60:51:52(qc=4.5)
 
                           -------------------------------
                              k-Points For BZ Sampling
                           -------------------------------
                       MP grid size for SCF calculation is  3  3  3
                            with an offset of   0.000  0.000  0.000
                       Number of kpoints used =            14
 
                           -------------------------------
                               Symmetry and Constraints
                           -------------------------------
 
                      Maximum deviation from symmetry =  0.00000         ANG
 
         There are no symmetry operations specified or generated for this cell
                      Number of ionic constraints     =           3
                      Point group of crystal =     1: C1, 1, 1
                      Space group of crystal =     8: Cm, C -2y
 
 
                         Centre of mass is constrained
             Set iprint > 1 for details of linear ionic constraints
 
                         Number of cell constraints= 0
                         Cell constraints are:  1 2 3 4 5 6
 
                         External pressure/stress (GPa)
                          0.00000   0.00000   0.00000
                                    0.00000   0.00000
                                              0.00000
  
+---------------- MEMORY AND SCRATCH DISK ESTIMATES PER PROCESS --------------+
|                                                     Memory          Disk    |
| Baseline code, static data and system overhead      453.0 MB         0.0 MB |
| BLAS internal memory storage                          0.0 MB         0.0 MB |
| Model and support data                              279.8 MB         0.0 MB |
| Electronic energy minimisation requirements          67.4 MB         0.0 MB |
| Force calculation requirements                        4.0 MB         0.0 MB |
| Stress calculation requirements                       4.8 MB         0.0 MB |
|                                               ----------------------------- |
| Approx. total storage required per process          800.2 MB         0.0 MB |
|                                                                             |
| Requirements will fluctuate during execution and may exceed these estimates |
+-----------------------------------------------------------------------------+
Calculating finite basis set correction with  3 cut-off energies.
Calculating total energy with cut-off of  806.342eV.
------------------------------------------------------------------------ <-- SCF
SCF loop      Energy           Fermi           Energy gain       Timer   <-- SCF
                               energy          per atom          (sec)   <-- SCF
------------------------------------------------------------------------ <-- SCF
Initial  -5.34060658E+004  0.00000000E+000                        41.68  <-- SCF
      1  -6.22500943E+004  7.75937349E+000   1.00500324E+002      59.36  <-- SCF
      2  -6.48460498E+004  7.19883309E+000   2.94994938E+001      71.30  <-- SCF
      3  -6.49231116E+004  6.93013890E+000   8.75702084E-001      85.00  <-- SCF
      4  -6.49204197E+004  7.78601519E+000  -3.05894680E-002     101.21  <-- SCF
      5  -6.48095792E+004  7.43392278E+000  -1.25955166E+000     116.95  <-- SCF
      6  -6.48113046E+004  7.32807000E+000   1.96072422E-002     136.51  <-- SCF
      7  -6.48110812E+004  7.41060436E+000  -2.53812062E-003     153.53  <-- SCF
      8  -6.48111299E+004  7.40989022E+000   5.52561956E-004     174.22  <-- SCF
      9  -6.48111481E+004  7.40824646E+000   2.07198603E-004     192.83  <-- SCF
     10  -6.48111500E+004  7.40339419E+000   2.17504722E-005     210.76  <-- SCF
     11  -6.48111490E+004  7.40537564E+000  -1.17735665E-005     229.07  <-- SCF
     12  -6.48111493E+004  7.40511055E+000   3.13499734E-006     248.32  <-- SCF
     13  -6.48111493E+004  7.40442706E+000   3.07155146E-007     265.52  <-- SCF
     14  -6.48111493E+004  7.40409980E+000  -3.28514604E-007     281.99  <-- SCF
     15  -6.48111492E+004  7.40360330E+000  -8.21097027E-008     299.86  <-- SCF
     16  -6.48111492E+004  7.40336815E+000  -1.43120090E-009     315.33  <-- SCF
     17  -6.48111492E+004  7.40328678E+000  -2.01082461E-010     330.05  <-- SCF
     18  -6.48111492E+004  7.40323111E+000   1.23039967E-010     342.12  <-- SCF
------------------------------------------------------------------------ <-- SCF
 
Final energy, E             =  -64811.14924929     eV
Final free energy (E-TS)    =  -64811.14924929     eV
(energies not corrected for finite basis set)
 
NB est. 0K energy (E-0.5TS)      =  -64811.14924929     eV
 
Calculating total energy with cut-off of  811.342eV.
------------------------------------------------------------------------ <-- SCF
SCF loop      Energy           Fermi           Energy gain       Timer   <-- SCF
                               energy          per atom          (sec)   <-- SCF
------------------------------------------------------------------------ <-- SCF
Initial  -6.48111492E+004  0.00000000E+000                       345.92  <-- SCF
      1  -6.48111517E+004  7.40310271E+000   2.81964457E-005     359.70  <-- SCF
      2  -6.48111517E+004  7.40310271E+000   4.08914543E-010     371.96  <-- SCF
      3  -6.48111517E+004  7.40314118E+000   1.66113799E-008     386.36  <-- SCF
      4  -6.48111517E+004  7.40315113E+000  -1.52344572E-009     399.44  <-- SCF
      5  -6.48111517E+004  7.40316457E+000  -3.01764309E-010     409.90  <-- SCF
      6  -6.48111517E+004  7.40318126E+000  -7.88861962E-011     420.80  <-- SCF
------------------------------------------------------------------------ <-- SCF
 
Final energy, E             =  -64811.15173185     eV
Final free energy (E-TS)    =  -64811.15173185     eV
(energies not corrected for finite basis set)
 
NB est. 0K energy (E-0.5TS)      =  -64811.15173185     eV
 
Calculating total energy with cut-off of  816.342eV.
------------------------------------------------------------------------ <-- SCF
SCF loop      Energy           Fermi           Energy gain       Timer   <-- SCF
                               energy          per atom          (sec)   <-- SCF
------------------------------------------------------------------------ <-- SCF
Initial  -6.48111517E+004  0.00000000E+000                       424.62  <-- SCF
      1  -6.48111546E+004  7.40322710E+000   3.25610583E-005     438.63  <-- SCF
      2  -6.48111546E+004  7.40322710E+000   2.13597383E-010     449.96  <-- SCF
      3  -6.48111546E+004  7.40320798E+000   1.98019820E-008     460.64  <-- SCF
      4  -6.48111546E+004  7.40320232E+000   5.93544803E-010     471.58  <-- SCF
      5  -6.48111546E+004  7.40319653E+000  -1.16009112E-010     481.90  <-- SCF
------------------------------------------------------------------------ <-- SCF
 
Final energy, E             =  -64811.15459901     eV
Final free energy (E-TS)    =  -64811.15459901     eV
(energies not corrected for finite basis set)
 
NB est. 0K energy (E-0.5TS)      =  -64811.15459901     eV
 
 For future reference: finite basis dEtot/dlog(Ecut) =      -0.436269eV
 Total energy corrected for finite basis set =  -64811.154598 eV
 
  =====================================================================
  +       Calculation of Nuclear Magnetic Resonance Parameters        +
  + ================================================================= +
 
  Starting Calculation of Electric Field Gradient Tensors         |<-- EFG
  +---------------- MEMORY AND SCRATCH DISK ESTIMATES PER PROCESS --------------+
  |                                                     Memory          Disk    |
  | Model and support data                              281.1 MB         0.0 MB |
  | NMR EFG calculation requirements                     64.9 MB         0.0 MB |
  |                                               ----------------------------- |
  | Approx. total storage required per process          346.0 MB         0.0 MB |
  |                                                                             |
  | Requirements will fluctuate during execution and may exceed these estimates |
  +-----------------------------------------------------------------------------+
  Total Time for EFG Tensors                      50.58 sec       |<-- EFG
 
  Starting Calculation of Chemical Shielding Tensors              |<-- NMR
  +---------------- MEMORY AND SCRATCH DISK ESTIMATES PER PROCESS --------------+
  |                                                     Memory          Disk    |
  | Model and support data                              281.1 MB         0.0 MB |
  | NMR chemical shift calculation requirements         142.3 MB         0.0 MB |
  |                                               ----------------------------- |
  | Approx. total storage required per process          423.4 MB         0.0 MB |
  |                                                                             |
  | Requirements will fluctuate during execution and may exceed these estimates |
  +-----------------------------------------------------------------------------+
  Starting k-point:   1 of   1                                    |<-- NMR
  Total Time for step 1 of 6:                    420.20 sec       |<-- NMR
  Total Time for step 2 of 6:                    419.78 sec       |<-- NMR
  Total Time for step 3 of 6:                    420.81 sec       |<-- NMR
  Total Time for step 4 of 6:                    421.21 sec       |<-- NMR
  Total Time for step 5 of 6:                    421.54 sec       |<-- NMR
  Total Time for step 6 of 6:                    417.36 sec       |<-- NMR
  Total Time for Chemical Shielding Tensors     3824.53 sec       |<-- NMR
 
  ========================================================================
  |           Chemical Shielding and Electric Field Gradient Tensors     |
  |----------------------------------------------------------------------|
  |     Nucleus                Shielding tensor             EFG Tensor   |
  |  Species       Ion    Iso(ppm)   Aniso(ppm)  Asym    Cq(MHz)    Eta  |
  |    O           1     -316.77      -1.67      0.99  -1.234E-02   0.83 |
  |    O           2     -316.03      -6.28      0.09  -3.342E-02   0.96 |
  |    O           3     -315.80       9.75      0.98   3.616E-02   0.93 |
  |    O           4     -315.80       9.75      0.98   3.616E-02   0.93 |
  |    O           5     -317.25     -13.52      0.99   5.363E-02   0.73 |
  |    O           6     -318.66      -1.82      0.34  -3.694E-02   0.70 |
  |    O           7     -317.25     -13.52      0.99   5.363E-02   0.73 |
  |    O           8     -316.91      10.75      0.96   3.262E-02   0.07 |
  |    O           9     -165.16     154.27      0.77   1.040E+00   0.90 |
  |    O          10     -164.16     154.46      0.76   1.057E+00   0.88 |
  |    O          11      -11.08      59.57      0.46   3.909E+00   0.83 |
  |    O          12      -85.64      85.21      0.17  -3.191E+00   0.10 |
  |    O          13       -5.81      71.86      0.34   3.915E+00   0.80 |
  |    O          14     -160.21     142.37      0.79   1.108E+00   0.71 |
  |    O          15      -10.67      61.05      0.29   3.947E+00   0.78 |
  |    O          16     -160.89     149.06      0.78   1.110E+00   0.77 |
  |    O          17     -165.16     154.27      0.77   1.040E+00   0.90 |
  |    O          18      -87.25      93.19      0.21  -3.195E+00   0.11 |
  |    O          19      -11.08      59.57      0.46   3.909E+00   0.83 |
  |    O          20     -162.73     147.69      0.79   1.050E+00   0.81 |
  |    O          21      -85.49      81.37      0.26  -3.092E+00   0.09 |
  |    O          22       -6.38      68.26      0.68   3.836E+00   0.87 |
  |    O          23     -166.37     161.64      0.81   1.091E+00   0.94 |
  |    O          24     -167.31     160.48      0.82   1.067E+00   0.98 |
  |    O          25      -85.73      82.95      0.09  -3.185E+00   0.12 |
  |    O          26     -164.72     155.23      0.83   1.042E+00   0.92 |
  |    O          27      -86.48      81.27      0.05  -3.188E+00   0.10 |
  |    O          28      -88.94      80.94      0.27  -3.201E+00   0.12 |
  |    O          29      -89.48      87.18      0.08  -3.229E+00   0.10 |
  |    O          30      -85.73      82.95      0.09  -3.185E+00   0.12 |
  |    O          31      -88.88      84.10      0.12  -3.163E+00   0.12 |
  |    O          32      -86.48      81.27      0.05  -3.188E+00   0.10 |
  |    O          33      -88.88      84.10      0.12  -3.163E+00   0.12 |
  |    O          34      -89.48      87.18      0.08  -3.229E+00   0.10 |
  |    O          35      -85.49      81.37      0.26  -3.092E+00   0.09 |
  |    O          36     -166.37     161.64      0.81   1.091E+00   0.94 |
  |    O          37      -88.94      80.94      0.27  -3.201E+00   0.12 |
  |    O          38     -164.72     155.23      0.83   1.042E+00   0.92 |
  |    O          39     -160.21     142.37      0.79   1.108E+00   0.71 |
  |    O          40     -160.89     149.06      0.78   1.110E+00   0.77 |
  |    O          41     -162.73     147.69      0.79   1.050E+00   0.81 |
  |    O          42      -87.25      93.19      0.21  -3.195E+00   0.11 |
  |    O          43      -85.64      85.22      0.17  -3.191E+00   0.10 |
  |    O          44     -164.16     154.46      0.76   1.057E+00   0.88 |
  |    O          45      -89.70      91.42      0.18  -3.204E+00   0.11 |
  |    O          46     -165.15     152.19      0.75   1.019E+00   0.92 |
  |    O          47     -165.15     152.19      0.75   1.019E+00   0.92 |
  |    O          48      -89.70      91.42      0.18  -3.204E+00   0.11 |
  |    O          49     -167.80     161.85      0.85   1.080E+00   0.94 |
  |    O          50      -89.92      91.44      0.34  -3.097E+00   0.09 |
  |    O          51     -164.36     156.86      0.82   1.066E+00   0.88 |
  |    O          52     -164.22     151.40      0.81   1.069E+00   0.80 |
  |    O          53     -164.36     156.86      0.82   1.066E+00   0.88 |
  |    O          54     -164.22     151.40      0.81   1.069E+00   0.80 |
  |    O          55     -167.92     159.19      0.83  -1.022E+00   0.98 |
  |    O          56      -92.72      84.37      0.13  -3.218E+00   0.13 |
  |    Zr          1     1614.23    -120.52      0.06  -3.741E+01   0.05 |
  |    Zr          2     1627.38    -130.22      0.21  -3.823E+01   0.06 |
  |    Zr          3     1628.40    -125.35      0.14  -4.016E+01   0.11 |
  |    Zr          4     1623.04    -123.99      0.10  -3.912E+01   0.08 |
  |    Zr          5     1623.04    -123.98      0.10  -3.912E+01   0.08 |
  |    Zr          6     1628.40    -125.35      0.14  -4.016E+01   0.11 |
  |    Zr          7     1627.38    -130.23      0.21  -3.823E+01   0.06 |
  |    Zr          8     1629.47    -124.79      0.16  -3.997E+01   0.12 |
  |    Zr          9     1629.55    -123.75      0.09  -4.011E+01   0.06 |
  |    Zr         10     1629.55    -123.76      0.09  -4.011E+01   0.06 |
  |    Zr         11     1629.47    -124.79      0.16  -3.997E+01   0.12 |
  |    Sn          1     3255.95     -61.24      0.39   1.259E+02   0.04 |
  |    Sn          2     3249.73     -48.22      0.47   1.259E+02   0.06 |
  |    Sn          3     3252.15     -48.83      0.01   1.284E+02   0.11 |
  |    Sn          4     3259.78     -62.20      0.11   1.279E+02   0.13 |
  |    Sn          5     3249.73     -48.22      0.47   1.259E+02   0.06 |
  |    La          1     4797.50     964.57      0.01  -8.648E+01   0.03 |
  |    La          2     4751.98     864.53      0.05  -8.451E+01   0.07 |
  |    La          3     4712.16     760.01      0.04  -8.413E+01   0.09 |
  |    La          4     4706.99     767.03      0.03  -8.288E+01   0.06 |
  |    La          5     4706.99     767.03      0.03  -8.288E+01   0.06 |
  |    La          6     4712.16     760.01      0.04  -8.413E+01   0.09 |
  |    La          7     4751.98     864.53      0.05  -8.451E+01   0.07 |
  |    La          8     4661.37     661.74      0.09  -7.973E+01   0.14 |
  |    La          9     4658.32     623.46      0.01  -7.844E+01   0.04 |
  |    La         10     4799.52     964.70      0.01  -8.616E+01   0.02 |
  |    La         11     4702.42     760.68      0.05  -8.037E+01   0.09 |
  |    La         12     4707.28     754.42      0.05  -8.192E+01   0.11 |
  |    La         13     4703.50     766.14      0.05  -8.064E+01   0.10 |
  |    La         14     4658.32     623.46      0.01  -7.844E+01   0.04 |
  |    La         15     4702.42     760.68      0.05  -8.037E+01   0.09 |
  |    La         16     4661.37     661.74      0.09  -7.973E+01   0.14 |
  ========================================================================
 
 *********************** Forces ***********************
 *                                                    *
 *            Cartesian components (eV/A)             *
 * -------------------------------------------------- *
 *                   x            y            z      *
 *                                                    *
 * O         1     -0.00262     -0.01419     -0.00262 *
 * O         2     -0.00465      0.00334     -0.00465 *
 * O         3      0.00242     -0.00057     -0.00142 *
 * O         4     -0.00142     -0.00057      0.00242 *
 * O         5     -0.00780     -0.01196     -0.00447 *
 * O         6      0.00644      0.01028      0.00644 *
 * O         7     -0.00447     -0.01196     -0.00780 *
 * O         8     -0.00791      0.00587     -0.00791 *
 * O         9     -0.00153     -0.00534      0.00133 *
 * O        10     -0.00479      0.00087      0.00049 *
 * O        11     -0.00128     -0.00864     -0.00047 *
 * O        12     -0.00413     -0.03053     -0.01820 *
 * O        13     -0.00067     -0.01417     -0.00067 *
 * O        14      0.00917     -0.00525     -0.00097 *
 * O        15     -0.00424      0.00413     -0.00424 *
 * O        16      0.01209      0.01033      0.00065 *
 * O        17      0.00133     -0.00534     -0.00153 *
 * O        18      0.02104     -0.02205     -0.01091 *
 * O        19     -0.00047     -0.00864     -0.00128 *
 * O        20      0.00645      0.01395      0.00373 *
 * O        21     -0.02527     -0.01185      0.00405 *
 * O        22     -0.00621     -0.00089     -0.00621 *
 * O        23      0.00362     -0.01724      0.00022 *
 * O        24     -0.00485      0.01579     -0.00485 *
 * O        25     -0.00571      0.01884     -0.02415 *
 * O        26     -0.01347      0.00083     -0.01774 *
 * O        27      0.00619     -0.02190     -0.02390 *
 * O        28      0.00087      0.01531     -0.03224 *
 * O        29      0.03060      0.03441     -0.00200 *
 * O        30     -0.02415      0.01884     -0.00571 *
 * O        31      0.01727     -0.02240     -0.01199 *
 * O        32     -0.02390     -0.02190      0.00619 *
 * O        33     -0.01199     -0.02240      0.01727 *
 * O        34     -0.00200      0.03441      0.03060 *
 * O        35      0.00405     -0.01185     -0.02527 *
 * O        36      0.00022     -0.01724      0.00362 *
 * O        37     -0.03224      0.01531      0.00087 *
 * O        38     -0.01774      0.00083     -0.01347 *
 * O        39     -0.00097     -0.00525      0.00917 *
 * O        40      0.00065      0.01033      0.01209 *
 * O        41      0.00373      0.01395      0.00645 *
 * O        42     -0.01091     -0.02205      0.02104 *
 * O        43     -0.01820     -0.03053     -0.00413 *
 * O        44      0.00049      0.00087     -0.00479 *
 * O        45      0.00343      0.02107      0.01849 *
 * O        46     -0.00517     -0.00220      0.00063 *
 * O        47      0.00063     -0.00220     -0.00516 *
 * O        48      0.01849      0.02107      0.00343 *
 * O        49      0.01267      0.02302      0.01267 *
 * O        50     -0.01194      0.00293     -0.01194 *
 * O        51      0.01245      0.00601      0.01245 *
 * O        52     -0.01030      0.00180      0.01309 *
 * O        53      0.01245      0.00601      0.01245 *
 * O        54      0.01309      0.00180     -0.01030 *
 * O        55     -0.00565     -0.01732     -0.00565 *
 * O        56      0.01586     -0.00015      0.01586 *
 * Zr        1     -0.00815      0.01071     -0.00815 *
 * Zr        2      0.01030      0.00104     -0.01442 *
 * Zr        3     -0.00101     -0.00191     -0.00060 *
 * Zr        4      0.01579     -0.01031     -0.01810 *
 * Zr        5     -0.01810     -0.01031      0.01579 *
 * Zr        6     -0.00060     -0.00191     -0.00101 *
 * Zr        7     -0.01442      0.00104      0.01030 *
 * Zr        8      0.03549      0.00288      0.01180 *
 * Zr        9     -0.00925      0.00233      0.00815 *
 * Zr       10      0.00816      0.00232     -0.00924 *
 * Zr       11      0.01180      0.00287      0.03549 *
 * Sn        1      0.00671      0.02128      0.00671 *
 * Sn        2      0.01494      0.00381      0.00110 *
 * Sn        3      0.00201     -0.01080      0.00201 *
 * Sn        4      0.00943      0.01808      0.00943 *
 * Sn        5      0.00110      0.00381      0.01494 *
 * La        1     -0.00531      0.00300     -0.00531 *
 * La        2      0.01056      0.00036      0.01072 *
 * La        3      0.00201      0.00796      0.00316 *
 * La        4     -0.00003     -0.00210     -0.00130 *
 * La        5     -0.00130     -0.00211     -0.00003 *
 * La        6      0.00316      0.00796      0.00201 *
 * La        7      0.01072      0.00036      0.01056 *
 * La        8     -0.00075      0.00089     -0.00451 *
 * La        9     -0.01602     -0.00011     -0.01308 *
 * La       10      0.00607      0.00878      0.00607 *
 * La       11      0.00121      0.01048      0.01307 *
 * La       12     -0.01172     -0.01614     -0.01172 *
 * La       13      0.00263     -0.01116      0.00263 *
 * La       14     -0.01308     -0.00011     -0.01602 *
 * La       15      0.01307      0.01048      0.00121 *
 * La       16     -0.00451      0.00089     -0.00075 *
 *                                                    *
 ******************************************************
 
 ***************** Stress Tensor *****************
 *                                               *
 *          Cartesian components (GPa)           *
 * --------------------------------------------- *
 *             x             y             z     *
 *                                               *
 *  x     -0.026288     -0.004840     -0.002652  *
 *  y     -0.004840      0.093116     -0.004840  *
 *  z     -0.002652     -0.004840     -0.026285  *
 *                                               *
 *  Pressure:   -0.0135                          *
 *                                               *
 *************************************************
 
 Pseudo atomic calculation performed for O 2s2 2p4
 
 Converged in 39 iterations to a total energy of -432.6554 eV
 
 
 Pseudo atomic calculation performed for Zr 4s2 4p6 4d2 5s2
 
 Converged in 38 iterations to a total energy of -1285.4931 eV
 
 
 Pseudo atomic calculation performed for Sn 4d10 5s2 5p2
 
 Converged in 48 iterations to a total energy of -2044.5414 eV
 
 
 Pseudo atomic calculation performed for La 5s2 5p6 5d1 6s2
 
 Converged in 34 iterations to a total energy of -968.0372 eV
 
Charge spilling parameter for spin component 1 = 0.23%
 
     Atomic Populations (Mulliken)
     -----------------------------
Species   Ion     s      p      d      f     Total  Charge (e)
==============================================================
  O        1     1.87   5.00   0.00   0.00   6.87    -0.87
  O        2     1.87   5.00   0.00   0.00   6.87    -0.87
  O        3     1.87   5.00   0.00   0.00   6.87    -0.87
  O        4     1.87   5.00   0.00   0.00   6.87    -0.87
  O        5     1.87   5.00   0.00   0.00   6.87    -0.87
  O        6     1.87   5.00   0.00   0.00   6.87    -0.87
  O        7     1.87   5.00   0.00   0.00   6.87    -0.87
  O        8     1.87   5.00   0.00   0.00   6.87    -0.87
  O        9     1.86   4.94   0.00   0.00   6.80    -0.80
  O       10     1.86   4.94   0.00   0.00   6.80    -0.80
  O       11     1.88   5.02   0.00   0.00   6.91    -0.91
  O       12     1.87   4.99   0.00   0.00   6.85    -0.85
  O       13     1.88   5.02   0.00   0.00   6.91    -0.91
  O       14     1.86   4.94   0.00   0.00   6.80    -0.80
  O       15     1.88   5.02   0.00   0.00   6.91    -0.91
  O       16     1.86   4.94   0.00   0.00   6.80    -0.80
  O       17     1.86   4.94   0.00   0.00   6.80    -0.80
  O       18     1.87   4.99   0.00   0.00   6.85    -0.85
  O       19     1.88   5.02   0.00   0.00   6.91    -0.91
  O       20     1.86   4.94   0.00   0.00   6.80    -0.80
  O       21     1.87   4.98   0.00   0.00   6.85    -0.85
  O       22     1.88   5.02   0.00   0.00   6.90    -0.90
  O       23     1.85   4.94   0.00   0.00   6.80    -0.80
  O       24     1.86   4.94   0.00   0.00   6.80    -0.80
  O       25     1.87   4.99   0.00   0.00   6.85    -0.85
  O       26     1.86   4.94   0.00   0.00   6.80    -0.80
  O       27     1.87   4.99   0.00   0.00   6.85    -0.85
  O       28     1.87   4.99   0.00   0.00   6.85    -0.85
  O       29     1.87   4.99   0.00   0.00   6.85    -0.85
  O       30     1.87   4.99   0.00   0.00   6.85    -0.85
  O       31     1.87   4.98   0.00   0.00   6.85    -0.85
  O       32     1.87   4.99   0.00   0.00   6.85    -0.85
  O       33     1.87   4.98   0.00   0.00   6.85    -0.85
  O       34     1.87   4.99   0.00   0.00   6.85    -0.85
  O       35     1.87   4.98   0.00   0.00   6.85    -0.85
  O       36     1.85   4.94   0.00   0.00   6.80    -0.80
  O       37     1.87   4.99   0.00   0.00   6.85    -0.85
  O       38     1.86   4.94   0.00   0.00   6.80    -0.80
  O       39     1.86   4.94   0.00   0.00   6.80    -0.80
  O       40     1.86   4.94   0.00   0.00   6.80    -0.80
  O       41     1.86   4.94   0.00   0.00   6.80    -0.80
  O       42     1.87   4.99   0.00   0.00   6.85    -0.85
  O       43     1.87   4.99   0.00   0.00   6.85    -0.85
  O       44     1.86   4.94   0.00   0.00   6.80    -0.80
  O       45     1.87   4.99   0.00   0.00   6.86    -0.86
  O       46     1.86   4.94   0.00   0.00   6.80    -0.80
  O       47     1.86   4.94   0.00   0.00   6.80    -0.80
  O       48     1.87   4.99   0.00   0.00   6.86    -0.86
  O       49     1.85   4.94   0.00   0.00   6.80    -0.80
  O       50     1.87   4.98   0.00   0.00   6.85    -0.85
  O       51     1.86   4.94   0.00   0.00   6.80    -0.80
  O       52     1.86   4.94   0.00   0.00   6.80    -0.80
  O       53     1.86   4.94   0.00   0.00   6.80    -0.80
  O       54     1.86   4.94   0.00   0.00   6.80    -0.80
  O       55     1.86   4.94   0.00   0.00   6.80    -0.80
  O       56     1.87   4.99   0.00   0.00   6.85    -0.85
  Zr       1     2.38   6.50   1.92   0.00  10.80     1.20
  Zr       2     2.38   6.49   1.92   0.00  10.79     1.21
  Zr       3     2.37   6.47   1.93   0.00  10.77     1.23
  Zr       4     2.37   6.48   1.93   0.00  10.78     1.22
  Zr       5     2.37   6.48   1.93   0.00  10.78     1.22
  Zr       6     2.37   6.47   1.93   0.00  10.77     1.23
  Zr       7     2.38   6.49   1.92   0.00  10.79     1.21
  Zr       8     2.37   6.47   1.93   0.00  10.77     1.23
  Zr       9     2.37   6.47   1.93   0.00  10.77     1.23
  Zr      10     2.37   6.47   1.93   0.00  10.77     1.23
  Zr      11     2.37   6.47   1.93   0.00  10.77     1.23
  Sn       1     1.05   1.32  10.00   0.00  12.37     1.63
  Sn       2     1.05   1.32  10.00   0.00  12.37     1.63
  Sn       3     1.05   1.32  10.00   0.00  12.37     1.63
  Sn       4     1.05   1.32  10.00   0.00  12.37     1.63
  Sn       5     1.05   1.32  10.00   0.00  12.37     1.63
  La       1     2.03   6.13   1.19   0.00   9.35     1.65
  La       2     2.05   6.14   1.19   0.00   9.38     1.62
  La       3     2.06   6.17   1.19   0.00   9.42     1.58
  La       4     2.07   6.16   1.19   0.00   9.42     1.58
  La       5     2.07   6.16   1.19   0.00   9.42     1.58
  La       6     2.06   6.17   1.19   0.00   9.42     1.58
  La       7     2.05   6.14   1.19   0.00   9.38     1.62
  La       8     2.09   6.18   1.19   0.00   9.46     1.54
  La       9     2.09   6.18   1.19   0.00   9.47     1.53
  La      10     2.01   6.13   1.19   0.00   9.33     1.67
  La      11     2.06   6.16   1.19   0.00   9.42     1.58
  La      12     2.06   6.17   1.19   0.00   9.42     1.58
  La      13     2.07   6.16   1.19   0.00   9.42     1.58
  La      14     2.09   6.18   1.19   0.00   9.47     1.53
  La      15     2.06   6.16   1.19   0.00   9.42     1.58
  La      16     2.09   6.18   1.19   0.00   9.46     1.54
==============================================================
 
            Bond              Population      Length (A)
============================================================
         O 48 -- Sn 2              0.35        2.10345
         O 45 -- Sn 5              0.35        2.10345
         O 42 -- Sn 3              0.35        2.10348
         O 18 -- Sn 3              0.35        2.10348
         O 29 -- Sn 4              0.35        2.10418
         O 34 -- Sn 4              0.35        2.10418
         O 25 -- Sn 3              0.35        2.10532
         O 30 -- Sn 3              0.35        2.10532
         O 43 -- Sn 4              0.35        2.10594
         O 12 -- Sn 4              0.35        2.10594
         O 56 -- Sn 1              0.34        2.10597
         O 37 -- Sn 1              0.34        2.10619
         O 28 -- Sn 1              0.34        2.10619
         O 15 -- Sn 5              0.34        2.10741
         O 15 -- Sn 2              0.34        2.10741
         O 32 -- Sn 2              0.35        2.10851
         O 27 -- Sn 5              0.35        2.10851
         O 31 -- Sn 5              0.34        2.10869
         O 33 -- Sn 2              0.34        2.10869
         O 36 -- Zr 3              0.43        2.10892
         O 23 -- Zr 6              0.43        2.10892
         O 19 -- Sn 5              0.34        2.11041
         O 11 -- Sn 2              0.34        2.11041
         O 49 -- Zr 4              0.42        2.11063
         O 49 -- Zr 5              0.42        2.11063
         O 11 -- Sn 1              0.34        2.11082
         O 19 -- Sn 1              0.34        2.11082
         O 13 -- Sn 3              0.34        2.11199
         O 35 -- Sn 5              0.34        2.11269
         O 21 -- Sn 2              0.34        2.11269
         O 50 -- Sn 3              0.34        2.11350
         O 24 -- Zr 10             0.42        2.11384
         O 24 -- Zr 9              0.42        2.11384
         O 36 -- Zr 11             0.42        2.11431
         O 23 -- Zr 8              0.42        2.11431
         O 13 -- Sn 4              0.33        2.11431
         O 29 -- Zr 5              0.45        2.11442
         O 34 -- Zr 4              0.45        2.11442
         O 53 -- Zr 7              0.43        2.11510
         O 51 -- Zr 2              0.43        2.11510
         O 10 -- Zr 6              0.43        2.11541
         O 44 -- Zr 3              0.43        2.11541
         O 40 -- Zr 8              0.43        2.11663
         O 16 -- Zr 11             0.43        2.11663
         O 55 -- Zr 7              0.43        2.11679
         O 55 -- Zr 2              0.43        2.11679
         O 17 -- Zr 9              0.43        2.11695
         O 9  -- Zr 10             0.43        2.11695
         O 38 -- Zr 2              0.43        2.11812
         O 26 -- Zr 7              0.43        2.11812
         O 54 -- Zr 1              0.43        2.11836
         O 52 -- Zr 1              0.43        2.11836
         O 47 -- Zr 4              0.44        2.11905
         O 46 -- Zr 5              0.44        2.11905
         O 33 -- Zr 3              0.46        2.11906
         O 31 -- Zr 6              0.46        2.11906
         O 48 -- Zr 1              0.44        2.11910
         O 45 -- Zr 1              0.44        2.11910
         O 22 -- Sn 4              0.33        2.11911
         O 18 -- Zr 7              0.45        2.11911
         O 42 -- Zr 2              0.45        2.11911
         O 38 -- Zr 8              0.42        2.11931
         O 26 -- Zr 11             0.42        2.11931
         O 22 -- Sn 1              0.34        2.11933
         O 30 -- Zr 10             0.45        2.11939
         O 25 -- Zr 9              0.45        2.11939
         O 53 -- Zr 3              0.42        2.12000
         O 51 -- Zr 6              0.42        2.12000
         O 20 -- Zr 8              0.43        2.12027
         O 41 -- Zr 11             0.43        2.12027
         O 54 -- Zr 9              0.42        2.12051
         O 52 -- Zr 10             0.42        2.12051
         O 56 -- Zr 1              0.45        2.12099
         O 14 -- Zr 10             0.43        2.12101
         O 39 -- Zr 9              0.43        2.12101
         O 17 -- Zr 11             0.44        2.12130
         O 9  -- Zr 8              0.44        2.12130
         O 37 -- Zr 4              0.45        2.12190
         O 28 -- Zr 5              0.45        2.12190
         O 44 -- Zr 10             0.43        2.12198
         O 10 -- Zr 9              0.43        2.12198
         O 43 -- Zr 2              0.45        2.12264
         O 12 -- Zr 7              0.45        2.12264
         O 39 -- Zr 4              0.43        2.12269
         O 14 -- Zr 5              0.43        2.12269
         O 16 -- Zr 6              0.43        2.12301
         O 40 -- Zr 3              0.43        2.12301
         O 32 -- Zr 11             0.45        2.12349
         O 27 -- Zr 8              0.45        2.12349
         O 50 -- Zr 1              0.46        2.12378
         O 46 -- Zr 3              0.44        2.12731
         O 47 -- Zr 6              0.44        2.12731
         O 20 -- Zr 5              0.43        2.12767
         O 41 -- Zr 4              0.43        2.12767
         O 21 -- Zr 7              0.45        2.12781
         O 35 -- Zr 2              0.45        2.12781
         O 1  -- La 10             0.19        2.35968
         O 2  -- La 2              0.18        2.36023
         O 2  -- La 7              0.18        2.36023
         O 1  -- La 1              0.19        2.36055
         O 6  -- La 1              0.18        2.36066
         O 4  -- La 6              0.18        2.36077
         O 3  -- La 3              0.18        2.36077
         O 6  -- La 12             0.17        2.36085
         O 3  -- La 5              0.16        2.36094
         O 4  -- La 4              0.16        2.36094
         O 1  -- La 11             0.18        2.36123
         O 1  -- La 15             0.18        2.36123
         O 8  -- La 5              0.19        2.36149
         O 8  -- La 4              0.19        2.36149
         O 2  -- La 13             0.17        2.36159
         O 8  -- La 10             0.18        2.36167
         O 7  -- La 3              0.19        2.36169
         O 5  -- La 6              0.19        2.36169
         O 5  -- La 2              0.17        2.36185
         O 7  -- La 7              0.17        2.36185
         O 8  -- La 13             0.17        2.36213
         O 2  -- La 12             0.18        2.36222
         O 3  -- La 8              0.17        2.36260
         O 4  -- La 16             0.17        2.36260
         O 7  -- La 16             0.18        2.36273
         O 5  -- La 8              0.18        2.36273
         O 7  -- La 11             0.16        2.36301
         O 5  -- La 15             0.16        2.36301
         O 6  -- La 9              0.18        2.36313
         O 6  -- La 14             0.18        2.36313
         O 4  -- La 9              0.16        2.36449
         O 3  -- La 14             0.16        2.36449
         O 51 -- La 14             0.14        2.66173
         O 53 -- La 9              0.14        2.66173
         O 46 -- La 15             0.12        2.66274
         O 47 -- La 11             0.12        2.66274
         O 49 -- La 12             0.12        2.66342
         O 10 -- La 13             0.12        2.66436
         O 44 -- La 13             0.12        2.66436
         O 26 -- La 5              0.14        2.66562
         O 38 -- La 4              0.14        2.66562
         O 9  -- La 11             0.12        2.66571
         O 17 -- La 15             0.12        2.66571
         O 55 -- La 10             0.12        2.66607
         O 55 -- La 1              0.12        2.66650
         O 24 -- La 13             0.12        2.66674
         O 39 -- La 8              0.14        2.66809
         O 14 -- La 16             0.14        2.66809
         O 36 -- La 15             0.11        2.66829
         O 23 -- La 11             0.11        2.66829
         O 41 -- La 12             0.13        2.66882
         O 20 -- La 12             0.13        2.66882
         O 52 -- La 2              0.12        2.66967
         O 54 -- La 7              0.12        2.66967
         O 52 -- La 6              0.14        2.66998
         O 54 -- La 3              0.14        2.66998
         O 49 -- La 1              0.12        2.67121
         O 26 -- La 10             0.11        2.67347
         O 38 -- La 10             0.11        2.67347
         O 12 -- La 9              0.18        2.67373
         O 43 -- La 14             0.18        2.67373
         O 23 -- La 7              0.13        2.67388
         O 36 -- La 2              0.13        2.67388
         O 16 -- La 14             0.13        2.67412
         O 40 -- La 9              0.13        2.67412
         O 45 -- La 5              0.18        2.67509
         O 48 -- La 4              0.18        2.67509
         O 24 -- La 10             0.12        2.67533
         O 41 -- La 2              0.13        2.67544
         O 20 -- La 7              0.13        2.67544
         O 40 -- La 4              0.13        2.67581
         O 16 -- La 5              0.13        2.67581
         O 51 -- La 1              0.12        2.67640
         O 53 -- La 1              0.12        2.67640
         O 34 -- La 11             0.16        2.67669
         O 29 -- La 15             0.16        2.67669
         O 18 -- La 8              0.18        2.67680
         O 42 -- La 16             0.18        2.67680
         O 56 -- La 7              0.18        2.67683
         O 56 -- La 2              0.18        2.67683
         O 19 -- La 16             0.23        2.67697
         O 11 -- La 8              0.23        2.67697
         O 11 -- La 14             0.24        2.67699
         O 19 -- La 9              0.24        2.67699
         O 37 -- La 8              0.19        2.67701
         O 28 -- La 16             0.19        2.67701
         O 22 -- La 14             0.25        2.67717
         O 22 -- La 9              0.25        2.67717
         O 15 -- La 13             0.22        2.67724
         O 45 -- La 3              0.18        2.67899
         O 48 -- La 6              0.18        2.67899
         O 13 -- La 15             0.23        2.67941
         O 13 -- La 11             0.23        2.67941
         O 47 -- La 1              0.13        2.68004
         O 46 -- La 1              0.13        2.68004
         O 35 -- La 16             0.19        2.68028
         O 21 -- La 8              0.19        2.68028
         O 10 -- La 7              0.13        2.68115
         O 44 -- La 2              0.13        2.68115
         O 9  -- La 10             0.12        2.68127
         O 17 -- La 10             0.12        2.68127
         O 15 -- La 12             0.23        2.68139
         O 25 -- La 15             0.17        2.68180
         O 30 -- La 11             0.17        2.68180
         O 33 -- La 13             0.17        2.68225
         O 31 -- La 13             0.17        2.68225
         O 14 -- La 6              0.14        2.68230
         O 39 -- La 3              0.14        2.68230
         O 27 -- La 9              0.18        2.68345
         O 32 -- La 14             0.18        2.68345
         O 42 -- La 4              0.17        2.68469
         O 18 -- La 5              0.17        2.68469
         O 50 -- La 4              0.19        2.68501
         O 50 -- La 5              0.19        2.68501
         O 28 -- La 7              0.17        2.68587
         O 37 -- La 2              0.17        2.68587
         O 12 -- La 6              0.19        2.68604
         O 43 -- La 3              0.19        2.68604
         O 34 -- La 3              0.19        2.68615
         O 29 -- La 6              0.19        2.68615
         O 25 -- La 8              0.18        2.68747
         O 30 -- La 16             0.18        2.68747
         O 27 -- La 12             0.18        2.68801
         O 32 -- La 12             0.18        2.68801
         O 33 -- La 4              0.18        2.68880
         O 31 -- La 5              0.18        2.68880
         O 35 -- La 3              0.19        2.69065
         O 21 -- La 6              0.19        2.69065
         O 13 -- O 29             -0.06        2.79575
         O 13 -- O 34             -0.06        2.79575
         O 15 -- O 31             -0.06        2.79752
         O 15 -- O 33             -0.06        2.79752
         O 37 -- O 56             -0.06        2.80030
         O 28 -- O 56             -0.06        2.80030
         O 11 -- O 37             -0.06        2.80167
         O 19 -- O 28             -0.06        2.80167
         O 19 -- O 22             -0.05        2.80198
         O 11 -- O 22             -0.05        2.80198
         O 15 -- O 32             -0.06        2.80223
         O 15 -- O 27             -0.06        2.80223
         O 33 -- O 48             -0.06        2.80293
         O 31 -- O 45             -0.06        2.80293
         O 13 -- O 30             -0.06        2.80343
         O 13 -- O 25             -0.06        2.80343
         O 11 -- O 32             -0.06        2.80464
         O 19 -- O 27             -0.06        2.80464
         O 18 -- O 25             -0.06        2.80543
         O 30 -- O 42             -0.06        2.80543
         O 18 -- O 50             -0.06        2.80564
         O 42 -- O 50             -0.06        2.80564
         O 19 -- O 35             -0.06        2.80608
         O 11 -- O 21             -0.06        2.80608
         O 22 -- O 43             -0.06        2.80615
         O 12 -- O 22             -0.06        2.80615
         O 34 -- O 43             -0.06        2.80647
         O 12 -- O 29             -0.06        2.80647
         O 24 -- O 44             -0.04        2.80822
         O 10 -- O 24             -0.04        2.80822
         O 23 -- O 47             -0.04        2.80841
         O 36 -- O 46             -0.04        2.80841
         O 17 -- O 36             -0.04        2.80845
         O 9  -- O 23             -0.04        2.80845
         O 21 -- O 48             -0.06        2.80972
         O 35 -- O 45             -0.06        2.80972
         O 20 -- O 49             -0.03        2.81047
         O 41 -- O 49             -0.03        2.81047
         O 38 -- O 55             -0.04        2.81068
         O 26 -- O 55             -0.04        2.81068
         O 40 -- O 53             -0.03        2.81229
         O 16 -- O 51             -0.03        2.81229
         O 53 -- O 55             -0.03        2.81258
         O 51 -- O 55             -0.03        2.81258
         O 38 -- O 40             -0.03        2.81263
         O 16 -- O 26             -0.03        2.81263
         O 20 -- O 23             -0.03        2.81435
         O 36 -- O 41             -0.03        2.81435
         O 47 -- O 49             -0.03        2.81515
         O 46 -- O 49             -0.03        2.81515
         O 17 -- O 24             -0.03        2.81622
         O 9  -- O 24             -0.03        2.81622
         O 29 -- O 46             -0.03        2.81662
         O 34 -- O 47             -0.03        2.81662
         O 36 -- O 44             -0.03        2.81683
         O 10 -- O 23             -0.03        2.81683
         O 37 -- O 39             -0.03        2.81720
         O 14 -- O 28             -0.03        2.81720
         O 54 -- O 56             -0.03        2.81722
         O 52 -- O 56             -0.03        2.81722
         O 43 -- O 51             -0.03        2.81905
         O 12 -- O 53             -0.03        2.81905
         O 17 -- O 25             -0.03        2.81952
         O 9  -- O 30             -0.03        2.81952
         O 38 -- O 42             -0.03        2.82062
         O 18 -- O 26             -0.03        2.82062
         O 33 -- O 44             -0.03        2.82088
         O 10 -- O 31             -0.03        2.82088
         O 10 -- O 54             -0.03        2.82102
         O 44 -- O 52             -0.03        2.82102
         O 39 -- O 54             -0.03        2.82123
         O 14 -- O 52             -0.03        2.82123
         O 45 -- O 54             -0.03        2.82234
         O 48 -- O 52             -0.03        2.82234
         O 9  -- O 38             -0.03        2.82325
         O 17 -- O 26             -0.03        2.82325
         O 18 -- O 21             -0.03        2.82343
         O 35 -- O 42             -0.03        2.82343
         O 47 -- O 51             -0.03        2.82412
         O 46 -- O 53             -0.03        2.82412
         O 48 -- O 50             -0.03        2.82477
         O 45 -- O 50             -0.03        2.82477
         O 14 -- O 30             -0.03        2.82822
         O 25 -- O 39             -0.03        2.82822
         O 16 -- O 32             -0.03        2.82966
         O 27 -- O 40             -0.03        2.82966
         O 32 -- O 41             -0.03        2.83068
         O 20 -- O 27             -0.03        2.83068
         O 16 -- O 31             -0.03        2.83110
         O 33 -- O 40             -0.03        2.83110
         O 20 -- O 28             -0.03        2.83136
         O 37 -- O 41             -0.03        2.83136
         O 14 -- O 29             -0.03        2.83156
         O 34 -- O 39             -0.03        2.83156
         O 35 -- O 43             -0.03        2.83957
         O 12 -- O 21             -0.03        2.83957
============================================================
 

Writing analysis data to Zr11_11_nmr.castep_bin

Writing model to Zr11_11_nmr.check
 
 A BibTeX formatted list of references used in this run has been written to 
 Zr11_11_nmr.bib
 
Initialisation time =     34.79 s
Calculation time    =   4361.94 s
Finalisation time   =      9.96 s
Total time          =   4406.68 s
Peak Memory Use     = 1372760 kB
  
Overall parallel efficiency rating: Good (70%)                                  
  
Data was distributed by:-
G-vector (24-way); efficiency rating: Good (72%)                                
k-point (14-way); efficiency rating: Excellent (95%)                            
