 +-------------------------------------------------+
 |                                                 |
 |      CCC   AA    SSS  TTTTT  EEEEE  PPPP        |
 |     C     A  A  S       T    E      P   P       |
 |     C     AAAA   SS     T    EEE    PPPP        |
 |     C     A  A     S    T    E      P           |
 |      CCC  A  A  SSS     T    EEEEE  P           |
 |                                                 |
 +-------------------------------------------------+
 |                                                 |
 | Welcome to Academic Release CASTEP version 16.11|          
 | Ab Initio Total Energy Program                  |
 |                                                 |
 | Authors:                                        |
 | M. Segall, M. Probert, C. Pickard, P. Hasnip,   |
 | S. Clark, K. Refson, J. R. Yates, M. Payne      |
 |                                                 |
 | Contributors:                                   |
 | P. Lindan, P. Haynes, J. White, V. Milman,      |
 | N. Govind, M. Gibson, P. Tulip, V. Cocula,      |
 | B. Montanari, D. Quigley, M. Glover,            |
 | L. Bernasconi, A. Perlov, M. Plummer,           |
 | E. McNellis, J. Meyer, J. Gale, D. Jochym       |
 | J. Aarons, B. Walker, R. Gillen, D. Jones       |
 | T. Green, I. J. Bush, C. J. Armstrong,          |
 | E. J. Higgins, E. L. Brown, M. S. McFly         |
 |                                                 |
 | Copyright (c) 2000 - 2015                       |
 |                                                 |
 |     Distributed under the terms of an           |
 |     Agreement between the United Kingdom        |
 |     Car-Parrinello (UKCP) Consortium,           |
 |     Daresbury Laboratory and Accelrys, Inc.     |
 |                                                 |
 | Please cite                                     |
 |                                                 |
 |     "First principles methods using CASTEP"     |
 |                                                 |
 |         Zeitschrift fuer Kristallographie       |
 |           220(5-6) pp. 567-570 (2005)           |
 |                                                 |
 | S. J. Clark, M. D. Segall, C. J. Pickard,       |
 | P. J. Hasnip, M. J. Probert, K. Refson,         |
 | M. C. Payne                                     |
 |                                                 |
 |       in all publications arising from          |
 |              your use of CASTEP                 |
 |                                                 |
 +-------------------------------------------------+
 
 
 Compiled for linux_x86_64_ifort17 on Mon, 09 Apr 2018 23:35:31 +0100
 from code version 
 203e84763863+ Castep161_branch Fri, 04 Mar 2016 19:21:07 +0000
 Compiler: Intel Fortran 17.0.1.132; Optimisation: fast
 MATHLIBS: Intel MKL(2017.0.1) (LAPACK version 3.6.0)
 FFT Lib : mkl
 Fundamental constants values: CODATA 2010
 
 Run started: Mon, 14 Sep 2020 17:18:16 +0100
 +-------------------------------------------------+
 |                                                 |
 |           N   N    M   M    RRRR                |
 |           NN  N    MM MM    R   R               |
 |           N N N    M M M    RRRR                |
 |           N  NN    M   M    R  R                |
 |           N   N    M   M    R   R               |
 |                                                 |
 +-------------------------------------------------+
 |                                                 |
 | Welcome to Materials Studio CASTEP-NMR          |
 |                                                 |
 | Authors:                                        |
 | J.R. Yates, C.J. Pickard, F. Mauri              |
 |                                                 |
 | Contributors:                                   |
 | T.F.G. Green, S.A. Joyce                        |
 |                                                 |
 | Copyright (c) 2004 - 2015                       |
 |                                                 |
 | Please cite the appropriate publications in all |
 | work arising from your use of CASTEP NMR.       |
 |                                                 |
 | For NMR Shielding Tensors cite:                 |
 |    "All-electron magnetic response with         |
 |    pseudopotentials: NMR chemical shifts",      |
 |    C. J. Pickard, F. Mauri;                     |
 |    Physical Review B63 245101 (2001), and       |
 |                                                 |
 |    "Calculation of NMR Chemical Shifts          |
 |    for extended systems using                   |
 |    Ultrasoft Pseudopotentials",                 |
 |    J. R. Yates, C. J. Pickard and F. Mauri      |
 |    Physical Review B76 024401 (2007)            |
 |                                                 |
 | For Electric Field Gradients cite:              |
 |   "Accurate First Principles Prediction of 17O  |
 |    NMR Parameters in SiO2: Assignment of the    |
 |    Zeolite Ferrierite Spectrum"                 |
 |    M. Profeta, F. Mauri and C. J. Pickard       |
 |    J. Amer. Chem. Soc. 125 541 (2003)           |
 |                                                 |
 | For Spin-Spin (J) Couplings cite:               |
 |   "A first principles theory of NMR J-coupling  |
 |   in solid-state systems"                       |
 |   S.A. Joyce, J.R. Yates, C.J. Pickard, F. Mauri|
 |   J. Chem. Phys. 127 204107 (2007)              |
 |                                                 |
 |   "Relativistic NMR J-coupling with ultrasoft   |
 |   pseudopotentials and the zeroth-order regular |
 |   approximation"                                |
 |   T.F.G. Green and J.R. Yates                   |
 |   J. Chem. Phys. 140 234106 (2014)              |
 |                                                 |
 +-------------------------------------------------+
 
 
 Atomic calculation performed for O: 1s2 2s2 2p4
 
 Converged in 44 iterations to an ae energy of -2040.855 eV
 
 
 Atomic calculation performed for O: 1s2 2s2 2p4
 
 Exceeded max iterations: converged to 0.000000062 eV
 
   ============================================================                
   | Pseudopotential Report - Date of generation 14-09-2020   |                
   ------------------------------------------------------------                
   | Element: O Ionic charge:  6.00 Level of theory: PBE      |                
   | Atomic Solver: ZORA (scalar)                             |                
   |                                                          |                
   |               Reference Electronic Structure             |                
   |         Orbital         Occupation         Energy        |                
   |            2s              2.000           -0.881        |                
   |            2p              4.000           -0.332        |                
   |                                                          |                
   |                 Pseudopotential Definition               |                
   |        Beta     l      e      Rc     scheme   norm       |                
   |          1      0   -0.881   1.100     qc      0         |                
   |          2      0    0.250   1.100     qc      0         |                
   |          3      1   -0.332   1.100     qc      0         |                
   |          4      1    0.250   1.100     qc      0         |                
   |         loc     2    0.000   1.100     pn      0         |                
   |                                                          |                
   | Augmentation charge Rinner = 0.769                       |                
   | Partial core correction Rc = 0.769                       |                
   ------------------------------------------------------------                
   | "2|1.1|15|18|20|20:21(qc=7)"                             |                
   ------------------------------------------------------------                
   |      Author: Chris J. Pickard, Cambridge University      |                
   ============================================================                
 
 Atomic calculation performed for Zr: 1s2 2s2 2p6 3s2 3p6 3d10 4s2 4p6 4d2 5s2
 
 Converged in 53 iterations to an ae energy of -97719.888 eV
 
 
 Atomic calculation performed for Zr: 1s2 2s2 2p6 3s2 3p6 3d10 4s2 4p6 4d2 5s2
 
 Exceeded max iterations: converged to 0.000000970 eV
 
 Warning: ion_atom_descreen_psp: negative charge density encountered
   ============================================================                
   | Pseudopotential Report - Date of generation 14-09-2020   |                
   ------------------------------------------------------------                
   | Element: Zr Ionic charge: 12.00 Level of theory: PBE     |                
   | Atomic Solver: ZORA (scalar)                             |                
   |                                                          |                
   |               Reference Electronic Structure             |                
   |         Orbital         Occupation         Energy        |                
   |            4s              2.000           -2.003        |                
   |            4p              6.000           -1.193        |                
   |            5s              2.000           -0.163        |                
   |            4d              2.000           -0.132        |                
   |                                                          |                
   |                 Pseudopotential Definition               |                
   |        Beta     l      e      Rc     scheme   norm       |                
   |          1      0   -2.003   2.105     qc      0         |                
   |          2      0   -0.163   2.105     qc      0         |                
   |          3      0    0.250   2.105     qc      0         |                
   |          4      1   -1.193   2.105     qc      0         |                
   |          5      1    0.250   2.105     qc      0         |                
   |          6      2   -0.132   2.105     qc      0         |                
   |          7      2    0.250   2.105     qc      0         |                
   |         loc     3    0.000   2.105     pn      0         |                
   |                                                          |                
   | Augmentation charge Rinner = 1.471                       |                
   | Partial core correction Rc = 1.471                       |                
   ------------------------------------------------------------                
   | "3|2.1|7|8|9|40U:50:41:42"                               |                
   ------------------------------------------------------------                
   |      Author: Chris J. Pickard, Cambridge University      |                
   ============================================================                
 
 Atomic calculation performed for Sn:
 1s2 2s2 2p6 3s2 3p6 3d10 4s2 4p6 4d10 5s2 5p2
 
 Converged in 58 iterations to an ae energy of -167539.320 eV
 
 
 Atomic calculation performed for Sn:
 1s2 2s2 2p6 3s2 3p6 3d10 4s2 4p6 4d10 5s2 5p2
 
 Exceeded max iterations: converged to 0.000001154 eV
 
   ============================================================                
   | Pseudopotential Report - Date of generation 14-09-2020   |                
   ------------------------------------------------------------                
   | Element: Sn Ionic charge: 14.00 Level of theory: PBE     |                
   | Atomic Solver: ZORA (scalar)                             |                
   |                                                          |                
   |               Reference Electronic Structure             |                
   |         Orbital         Occupation         Energy        |                
   |            4d             10.000           -0.950        |                
   |            5s              2.000           -0.388        |                
   |            5p              2.000           -0.136        |                
   |                                                          |                
   |                 Pseudopotential Definition               |                
   |        Beta     l      e      Rc     scheme   norm       |                
   |          1      0   -0.388   2.199     qc      0         |                
   |          2      0    0.250   2.199     qc      0         |                
   |          3      1   -0.136   2.199     qc      0         |                
   |          4      1    0.250   2.199     qc      0         |                
   |          5      2   -0.950   2.199     qc      0         |                
   |          6      2    0.250   2.199     qc      0         |                
   |         loc     3    0.000   2.199     pn      0         |                
   |                                                          |                
   | Augmentation charge Rinner = 1.537                       |                
   | Partial core correction Rc = 1.537                       |                
   ------------------------------------------------------------                
   | "3|2.2|7|8|9|50:51:42"                                   |                
   ------------------------------------------------------------                
   |      Author: Chris J. Pickard, Cambridge University      |                
   ============================================================                
 
 Atomic calculation performed for La:
 1s2 2s2 2p6 3s2 3p6 3d10 4s2 4p6 4d10 5s2 5p6 5d1 6s2
 
 Converged in 56 iterations to an ae energy of -230121.495 eV
 
 
 Atomic calculation performed for La:
 1s2 2s2 2p6 3s2 3p6 3d10 4s2 4p6 4d10 5s2 5p6 5d1 6s2
 
 Exceeded max iterations: converged to 0.000000907 eV
 
 Warning: ion_atom_descreen_psp: negative charge density encountered
   ============================================================                
   | Pseudopotential Report - Date of generation 14-09-2020   |                
   ------------------------------------------------------------                
   | Element: La Ionic charge: 11.00 Level of theory: PBE     |                
   | Atomic Solver: ZORA (scalar)                             |                
   |                                                          |                
   |               Reference Electronic Structure             |                
   |         Orbital         Occupation         Energy        |                
   |            5s              2.000           -1.430        |                
   |            5p              6.000           -0.823        |                
   |            6s              2.000           -0.135        |                
   |            5d              1.000           -0.114        |                
   |                                                          |                
   |                 Pseudopotential Definition               |                
   |        Beta     l      e      Rc     scheme   norm       |                
   |          1      0   -1.430   2.298     qc      0         |                
   |          2      0   -0.135   2.298     qc      0         |                
   |          3      0    0.250   2.298     qc      0         |                
   |          4      1   -0.823   2.298     qc      0         |                
   |          5      1    0.250   2.298     qc      0         |                
   |          6      2   -0.114   2.298     qc      0         |                
   |          7      2    0.250   2.298     qc      0         |                
   |         loc     2    0.000   2.298     pn      0         |                
   |                                                          |                
   | Augmentation charge Rinner = 1.606                       |                
   | Partial core correction Rc = 1.606                       |                
   ------------------------------------------------------------                
   | "2|2.3|5|6|7|50U:60:51:52(qc=4.5)"                       |                
   ------------------------------------------------------------                
   |      Author: Chris J. Pickard, Cambridge University      |                
   ============================================================                
 
 Pseudo atomic calculation performed for O 2s2 2p4
 
 Converged in 39 iterations to a total energy of -432.6554 eV
 
 
 Pseudo atomic calculation performed for Zr 4s2 4p6 4d2 5s2
 
 Converged in 38 iterations to a total energy of -1285.4931 eV
 
 
 Pseudo atomic calculation performed for Sn 4d10 5s2 5p2
 
 Converged in 48 iterations to a total energy of -2044.5414 eV
 
 
 Pseudo atomic calculation performed for La 5s2 5p6 5d1 6s2
 
 Converged in 34 iterations to a total energy of -968.0372 eV
 
 Calculation parallelised over 336 processes.
 Data is distributed by G-vector(24-way) and k-point(14-way)

 ************************************ Title ************************************
 nmr testing

 ***************************** General Parameters ******************************
  
 output verbosity                               : normal  (1)
 write checkpoint data to                       : Zr11_33_nmr.check
 type of calculation                            : Magnetic Resonance
 stress calculation                             : on
 density difference calculation                 : off
 electron localisation func (ELF) calculation   : off
 Hirshfeld analysis                             : off
 unlimited duration calculation
 timing information                             : on
 memory usage estimate                          : on
 write final potential to formatted file        : off
 write final density to formatted file          : off
 write BibTeX reference list                    : on
 write OTFG pseudopotential files               : on
 checkpoint writing                             : both castep_bin and check files
  
 output         length unit                     : A
 output           mass unit                     : amu
 output           time unit                     : ps
 output         charge unit                     : e
 output           spin unit                     : hbar/2
 output         energy unit                     : eV
 output          force unit                     : eV/A
 output       velocity unit                     : A/ps
 output       pressure unit                     : GPa
 output     inv_length unit                     : 1/A
 output      frequency unit                     : cm-1
 output force constant unit                     : eV/A**2
 output         volume unit                     : A**3
 output   IR intensity unit                     : (D/A)**2/amu
 output         dipole unit                     : D
 output         efield unit                     : eV/A/e
 output        entropy unit                     : J/mol/K
  
 wavefunctions paging                           : none
 random number generator seed                   : randomised (171817103)
 data distribution                              : optimal for this architecture
 optimization strategy                          : maximize speed(+++)

 *********************** Exchange-Correlation Parameters ***********************
  
 using functional                               : Perdew Burke Ernzerhof
 relativistic treatment                         : ZORA
 DFT+D: Semi-empirical dispersion correction    : off

 ************************* Pseudopotential Parameters **************************
  
 pseudopotential representation                 : reciprocal space
 <beta|phi> representation                      : reciprocal space
 spin-orbit coupling                            : off

 **************************** Basis Set Parameters *****************************
  
 plane wave basis set cut-off                   :   816.3416   eV
 size of standard grid                          :     1.7500
 size of   fine   gmax                          :    25.6161   1/A
 finite basis set correction                    : automatic
 number of sample energies                      :          3
           sample  spacing                      :     5.0000   eV

 **************************** Electronic Parameters ****************************
  
 number of  electrons                           :  714.0    
 net charge of system                           :  0.000    
 treating system as non-spin-polarized
 number of bands                                :        428

 ********************* Electronic Minimization Parameters **********************
  
 Method: Treating system as metallic with density mixing treatment of electrons,
         and number of  SD  steps               :          1
         and number of  CG  steps               :          4
  
 total energy / atom convergence tol.           : 0.1000E-08   eV
 eigen-energy convergence tolerance             : 0.2465E-09   eV
 max force / atom convergence tol.              : ignored
 convergence tolerance window                   :          3   cycles
 max. number of SCF cycles                      :         50
 number of fixed-spin iterations                :         10
 smearing scheme                                : Gaussian
 smearing width                                 : 0.2000       eV
 Fermi energy convergence tolerance             : 0.2721E-13   eV
 periodic dipole correction                     : NONE

 ************************** Density Mixing Parameters **************************
  
 density-mixing scheme                          : Broyden
 max. length of mixing history                  :         20
 charge density mixing amplitude                : 0.8000    
 cut-off energy for mixing                      :  816.3       eV

 *********************** Population Analysis Parameters ************************
  
 Population analysis with cutoff                :  3.000       A

 ************************ Magnetic Resonance Parameters ************************
  
 Magnetic Resonance Property                    : Chemical Shielding + EFG
 Position Operator Method                       : crystal
 max. number of MagRes CG steps                 :        250
 convergence tolerance window                   :          2   cycles
 energy convergence tolerance                   : 0.1000E-11   eV
 band convergence tolerance                     : 0.1000E-08   eV

 *******************************************************************************
  
 
                           -------------------------------
                                      Unit Cell
                           -------------------------------
        Real Lattice(A)                      Reciprocal Lattice(1/A)
  10.9099288   0.0057648  -0.0002684        0.5759146  -0.0003044   0.0000140
   0.0057657  10.9065322  -0.0058016       -0.0003044   0.5760941   0.0003064
  -0.0002676  -0.0058022  10.9091839        0.0000140   0.0003064   0.5759539
 
                       Lattice parameters(A)       Cell Angles
                    a =   10.909930          alpha =   90.060952
                    b =   10.906535          beta  =   90.002831
                    c =   10.909185          gamma =   89.939435
 
                       Current cell volume = 1298.077497       A**3
 
                           -------------------------------
                                     Cell Contents
                           -------------------------------
                         Total number of ions in cell =   88
                      Total number of species in cell =    4
                        Max number of any one species =   56
 
            xxxxxxxxxxxxxxxxxxxxxxxxxxxxxxxxxxxxxxxxxxxxxxxxxxxxxxxxxxxx
            x  Element    Atom        Fractional coordinates of atoms  x
            x            Number           u          v          w      x
            x----------------------------------------------------------x
            x  O            1         0.125090   0.124664   0.124902   x 
            x  O            2         0.625153   0.124842   0.624855   x 
            x  O            3         0.125061   0.625094   0.625109   x 
            x  O            4         0.624930   0.625072   0.124921   x 
            x  O            5         0.874842   0.374951   0.375155   x 
            x  O            6         0.874821   0.874933   0.875004   x 
            x  O            7         0.375250   0.374910   0.874726   x 
            x  O            8         0.374957   0.874959   0.375195   x 
            x  O            9         0.421309   0.126482   0.125558   x 
            x  O           10         0.330476   0.124809   0.624389   x 
            x  O           11         0.829860   0.624550   0.624757   x 
            x  O           12         0.919817   0.624697   0.124727   x 
            x  O           13         0.125694   0.419210   0.124290   x 
            x  O           14         0.623963   0.329341   0.125714   x 
            x  O           15         0.625179   0.830062   0.624840   x 
            x  O           16         0.125314   0.919659   0.624308   x 
            x  O           17         0.125536   0.124463   0.420015   x 
            x  O           18         0.125221   0.624718   0.330196   x 
            x  O           19         0.625715   0.625446   0.829768   x 
            x  O           20         0.625616   0.124835   0.919506   x 
            x  O           21         0.876188   0.671041   0.373831   x 
            x  O           22         0.875685   0.579419   0.876453   x 
            x  O           23         0.374145   0.079541   0.875732   x 
            x  O           24         0.375497   0.170447   0.374667   x 
            x  O           25         0.170460   0.376247   0.374612   x 
            x  O           26         0.079125   0.873426   0.374421   x 
            x  O           27         0.579934   0.875273   0.874879   x 
            x  O           28         0.669466   0.375305   0.875506   x 
            x  O           29         0.875390   0.376277   0.079495   x 
            x  O           30         0.374104   0.375070   0.169621   x 
            x  O           31         0.375051   0.875300   0.670037   x 
            x  O           32         0.874695   0.875656   0.580416   x 
            x  O           33         0.669628   0.875634   0.375382   x 
            x  O           34         0.080340   0.375103   0.875890   x 
            x  O           35         0.374887   0.670257   0.875060   x 
            x  O           36         0.873989   0.079946   0.376041   x 
            x  O           37         0.875579   0.374321   0.670968   x 
            x  O           38         0.374576   0.875306   0.080015   x 
            x  O           39         0.124270   0.329331   0.626057   x 
            x  O           40         0.625675   0.919688   0.124631   x 
            x  O           41         0.920969   0.125735   0.625894   x 
            x  O           42         0.329877   0.623935   0.125253   x 
            x  O           43         0.124639   0.623895   0.920064   x 
            x  O           44         0.624097   0.125762   0.329055   x 
            x  O           45         0.420223   0.625466   0.624327   x 
            x  O           46         0.830016   0.124490   0.124451   x 
            x  O           47         0.124425   0.126478   0.828671   x 
            x  O           48         0.625357   0.624589   0.420207   x 
            x  O           49         0.875342   0.170461   0.874482   x 
            x  O           50         0.373610   0.579391   0.374411   x 
            x  O           51         0.169903   0.875335   0.875322   x 
            x  O           52         0.579057   0.374309   0.374433   x 
            x  O           53         0.875602   0.873414   0.170861   x 
            x  O           54         0.374507   0.375298   0.580551   x 
            x  O           55         0.124534   0.829646   0.125434   x 
            x  O           56         0.625810   0.419777   0.624334   x 
            x  Zr           1         0.499650   0.499736   0.499761   x 
            x  Zr           2         0.249266   0.749044   0.000362   x 
            x  Zr           3         0.749731  -0.000097   0.250032   x 
            x  Zr           4         0.749907   0.250484  -0.000132   x 
            x  Zr           5         0.249432   0.000416   0.749244   x 
            x  Zr           6         0.500223   0.000300   0.000213   x 
            x  Zr           7         0.250337   0.250633   0.500037   x 
            x  Zr           8         0.750674   0.499660   0.751190   x 
            x  Zr           9         0.750748   0.750644   0.499645   x 
            x  Zr          10         0.500167   0.750699   0.749648   x 
            x  Zr          11        -0.000015   0.000029   0.499989   x 
            x  Sn           1        -0.000589   0.250693   0.750881   x 
            x  Sn           2         0.001128   0.748772   0.248865   x 
            x  Sn           3         0.249510   0.500381   0.249380   x 
            x  Sn           4         0.000682   0.500291   0.000635   x 
            x  Sn           5         0.499092   0.250706   0.250575   x 
            x  La           1        -0.000152  -0.000132   0.000144   x 
            x  La           2         0.749973   0.249904   0.500006   x 
            x  La           3         0.250483   0.500145   0.749873   x 
            x  La           4         0.500100   0.750168   0.250002   x 
            x  La           5         0.250146   0.750067   0.500320   x 
            x  La           6         0.749532   0.499996   0.250303   x 
            x  La           7         0.500139   0.249966   0.749851   x 
            x  La           8        -0.000274   0.499973   0.500412   x 
            x  La           9         0.749560   0.750183  -0.000069   x 
            x  La          10         0.249915  -0.000153   0.250102   x 
            x  La          11         0.250372   0.249480  -0.000333   x 
            x  La          12         0.749968   0.000020   0.750047   x 
            x  La          13         0.500001  -0.000011   0.499968   x 
            x  La          14        -0.000002   0.750194   0.749867   x 
            x  La          15        -0.000217   0.249345   0.250218   x 
            x  La          16         0.500060   0.500197  -0.000430   x 
            xxxxxxxxxxxxxxxxxxxxxxxxxxxxxxxxxxxxxxxxxxxxxxxxxxxxxxxxxxxx
 
 
                         No user defined ionic velocities
 
                           -------------------------------
                                   Details of Species
                           -------------------------------
 
                               Mass of species in AMU
                                    O   15.9994000
                                    Zr   91.2240000
                                    Sn  118.7100000
                                    La  138.9055000
 
                          Electric Quadrupole Moment (Barn)
                                    O   -0.0255800 Isotope 17
                                    Zr   -0.1760000 Isotope 91
                                    Sn    1.0000000 No Isotope Defined
                                    La    0.2000000 Isotope139
 
                          Files used for pseudopotentials:
                                    O 2|1.1|15|18|20|20:21(qc=7)
                                    Zr 3|2.1|7|8|9|40U:50:41:42
                                    Sn 3|2.2|7|8|9|50:51:42
                                    La 2|2.3|5|6|7|50U:60:51:52(qc=4.5)
 
                           -------------------------------
                              k-Points For BZ Sampling
                           -------------------------------
                       MP grid size for SCF calculation is  3  3  3
                            with an offset of   0.000  0.000  0.000
                       Number of kpoints used =            14
 
                           -------------------------------
                               Symmetry and Constraints
                           -------------------------------
 
                      Maximum deviation from symmetry =  0.00000         ANG
 
         There are no symmetry operations specified or generated for this cell
                      Number of ionic constraints     =           3
                      Point group of crystal =     1: C1, 1, 1
                      Space group of crystal =     1: P1, P 1
 
 
                         Centre of mass is constrained
             Set iprint > 1 for details of linear ionic constraints
 
                         Number of cell constraints= 0
                         Cell constraints are:  1 2 3 4 5 6
 
                         External pressure/stress (GPa)
                          0.00000   0.00000   0.00000
                                    0.00000   0.00000
                                              0.00000
  
+---------------- MEMORY AND SCRATCH DISK ESTIMATES PER PROCESS --------------+
|                                                     Memory          Disk    |
| Baseline code, static data and system overhead      453.0 MB         0.0 MB |
| BLAS internal memory storage                          0.0 MB         0.0 MB |
| Model and support data                              279.9 MB         0.0 MB |
| Electronic energy minimisation requirements          67.4 MB         0.0 MB |
| Force calculation requirements                        4.0 MB         0.0 MB |
| Stress calculation requirements                       4.8 MB         0.0 MB |
|                                               ----------------------------- |
| Approx. total storage required per process          800.2 MB         0.0 MB |
|                                                                             |
| Requirements will fluctuate during execution and may exceed these estimates |
+-----------------------------------------------------------------------------+
Calculating finite basis set correction with  3 cut-off energies.
Calculating total energy with cut-off of  806.342eV.
------------------------------------------------------------------------ <-- SCF
SCF loop      Energy           Fermi           Energy gain       Timer   <-- SCF
                               energy          per atom          (sec)   <-- SCF
------------------------------------------------------------------------ <-- SCF
Initial  -5.34120411E+004  0.00000000E+000                        41.75  <-- SCF
      1  -6.22677454E+004  7.62818744E+000   1.00633003E+002      59.35  <-- SCF
      2  -6.48471017E+004  7.41250668E+000   2.93108670E+001      71.22  <-- SCF
      3  -6.49231583E+004  6.91390283E+000   8.64280427E-001      84.81  <-- SCF
      4  -6.49200976E+004  7.78645311E+000  -3.47806511E-002     100.81  <-- SCF
      5  -6.48095828E+004  7.39192685E+000  -1.25585049E+000     116.66  <-- SCF
      6  -6.48113108E+004  7.30575481E+000   1.96360133E-002     136.38  <-- SCF
      7  -6.48110787E+004  7.38159025E+000  -2.63703954E-003     153.22  <-- SCF
      8  -6.48111280E+004  7.38444593E+000   5.60014739E-004     174.18  <-- SCF
      9  -6.48111470E+004  7.38339265E+000   2.15618402E-004     192.54  <-- SCF
     10  -6.48111487E+004  7.37938839E+000   1.93812849E-005     210.67  <-- SCF
     11  -6.48111477E+004  7.38086119E+000  -1.14319302E-005     228.60  <-- SCF
     12  -6.48111480E+004  7.38055451E+000   3.26396404E-006     247.96  <-- SCF
     13  -6.48111480E+004  7.37984837E+000   3.42958933E-007     265.40  <-- SCF
     14  -6.48111480E+004  7.37952850E+000  -3.17030264E-007     282.09  <-- SCF
     15  -6.48111480E+004  7.37903000E+000  -7.51951378E-008     300.12  <-- SCF
     16  -6.48111480E+004  7.37874347E+000  -3.10890359E-009     316.07  <-- SCF
     17  -6.48111480E+004  7.37866838E+000   1.12859289E-009     330.98  <-- SCF
     18  -6.48111480E+004  7.37861638E+000  -3.74041501E-010     342.97  <-- SCF
     19  -6.48111480E+004  7.37857843E+000   2.10363190E-010     354.44  <-- SCF
------------------------------------------------------------------------ <-- SCF
 
Final energy, E             =  -64811.14795036     eV
Final free energy (E-TS)    =  -64811.14795036     eV
(energies not corrected for finite basis set)
 
NB est. 0K energy (E-0.5TS)      =  -64811.14795036     eV
 
Calculating total energy with cut-off of  811.342eV.
------------------------------------------------------------------------ <-- SCF
SCF loop      Energy           Fermi           Energy gain       Timer   <-- SCF
                               energy          per atom          (sec)   <-- SCF
------------------------------------------------------------------------ <-- SCF
Initial  -6.48111480E+004  0.00000000E+000                       358.37  <-- SCF
      1  -6.48111504E+004  7.37857195E+000   2.78710626E-005     372.38  <-- SCF
      2  -6.48111504E+004  7.37857195E+000   2.06847762E-010     383.11  <-- SCF
      3  -6.48111504E+004  7.37855651E+000   1.64340617E-008     394.58  <-- SCF
      4  -6.48111504E+004  7.37857755E+000   3.88525063E-010     405.91  <-- SCF
      5  -6.48111504E+004  7.37857273E+000  -1.84067791E-010     416.41  <-- SCF
------------------------------------------------------------------------ <-- SCF
 
Final energy, E             =  -64811.15040448     eV
Final free energy (E-TS)    =  -64811.15040448     eV
(energies not corrected for finite basis set)
 
NB est. 0K energy (E-0.5TS)      =  -64811.15040448     eV
 
Calculating total energy with cut-off of  816.342eV.
------------------------------------------------------------------------ <-- SCF
SCF loop      Energy           Fermi           Energy gain       Timer   <-- SCF
                               energy          per atom          (sec)   <-- SCF
------------------------------------------------------------------------ <-- SCF
Initial  -6.48111504E+004  0.00000000E+000                       420.11  <-- SCF
      1  -6.48111533E+004  7.37857308E+000   3.29073095E-005     433.91  <-- SCF
      2  -6.48111533E+004  7.37857308E+000   2.10222573E-010     444.53  <-- SCF
      3  -6.48111533E+004  7.37857503E+000   2.03778091E-008     454.90  <-- SCF
      4  -6.48111533E+004  7.37857096E+000   6.35589317E-010     465.34  <-- SCF
      5  -6.48111533E+004  7.37857207E+000  -1.14181090E-010     475.65  <-- SCF
------------------------------------------------------------------------ <-- SCF
 
Final energy, E             =  -64811.15330217     eV
Final free energy (E-TS)    =  -64811.15330217     eV
(energies not corrected for finite basis set)
 
NB est. 0K energy (E-0.5TS)      =  -64811.15330217     eV
 
 For future reference: finite basis dEtot/dlog(Ecut) =      -0.436701eV
 Total energy corrected for finite basis set =  -64811.153293 eV
 
  =====================================================================
  +       Calculation of Nuclear Magnetic Resonance Parameters        +
  + ================================================================= +
 
  Starting Calculation of Electric Field Gradient Tensors         |<-- EFG
  +---------------- MEMORY AND SCRATCH DISK ESTIMATES PER PROCESS --------------+
  |                                                     Memory          Disk    |
  | Model and support data                              281.1 MB         0.0 MB |
  | NMR EFG calculation requirements                     65.0 MB         0.0 MB |
  |                                               ----------------------------- |
  | Approx. total storage required per process          346.1 MB         0.0 MB |
  |                                                                             |
  | Requirements will fluctuate during execution and may exceed these estimates |
  +-----------------------------------------------------------------------------+
  Total Time for EFG Tensors                      48.33 sec       |<-- EFG
 
  Starting Calculation of Chemical Shielding Tensors              |<-- NMR
  +---------------- MEMORY AND SCRATCH DISK ESTIMATES PER PROCESS --------------+
  |                                                     Memory          Disk    |
  | Model and support data                              281.1 MB         0.0 MB |
  | NMR chemical shift calculation requirements         142.3 MB         0.0 MB |
  |                                               ----------------------------- |
  | Approx. total storage required per process          423.5 MB         0.0 MB |
  |                                                                             |
  | Requirements will fluctuate during execution and may exceed these estimates |
  +-----------------------------------------------------------------------------+
  Starting k-point:   1 of   1                                    |<-- NMR
  Total Time for step 1 of 6:                    419.93 sec       |<-- NMR
  Total Time for step 2 of 6:                    419.73 sec       |<-- NMR
  Total Time for step 3 of 6:                    419.28 sec       |<-- NMR
  Total Time for step 4 of 6:                    420.16 sec       |<-- NMR
  Total Time for step 5 of 6:                    419.79 sec       |<-- NMR
  Total Time for step 6 of 6:                    416.41 sec       |<-- NMR
  Total Time for Chemical Shielding Tensors     3807.89 sec       |<-- NMR
 
  ========================================================================
  |           Chemical Shielding and Electric Field Gradient Tensors     |
  |----------------------------------------------------------------------|
  |     Nucleus                Shielding tensor             EFG Tensor   |
  |  Species       Ion    Iso(ppm)   Aniso(ppm)  Asym    Cq(MHz)    Eta  |
  |    O           1     -316.75     -17.29      0.63  -9.324E-02   0.15 |
  |    O           2     -316.28       9.49      0.57  -6.372E-02   0.45 |
  |    O           3     -316.57     -11.71      0.52   5.216E-02   0.06 |
  |    O           4     -316.63     -11.44      0.45   5.427E-02   0.15 |
  |    O           5     -317.87      12.04      0.09  -9.147E-02   0.62 |
  |    O           6     -316.65     -14.34      0.93   6.420E-02   0.63 |
  |    O           7     -317.20       8.64      0.91  -2.492E-02   0.63 |
  |    O           8     -316.72     -13.87      0.87   6.690E-02   0.71 |
  |    O           9      -82.71      80.49      0.16  -3.207E+00   0.11 |
  |    O          10     -165.84     156.65      0.81   1.037E+00   0.91 |
  |    O          11     -161.39     142.04      0.79   1.078E+00   0.72 |
  |    O          12      -13.60      59.44      0.22   3.946E+00   0.80 |
  |    O          13       -9.80      57.94      0.78   3.857E+00   0.87 |
  |    O          14      -85.27      86.15      0.25  -3.151E+00   0.09 |
  |    O          15     -166.95     159.78      0.75   1.035E+00   0.99 |
  |    O          16     -163.71     157.97      0.81   1.085E+00   0.85 |
  |    O          17     -160.45     146.11      0.82   1.098E+00   0.72 |
  |    O          18      -14.05      59.37      0.22   3.942E+00   0.80 |
  |    O          19     -164.06     155.77      0.75   1.080E+00   0.86 |
  |    O          20     -165.75     155.44      0.82   1.030E+00   0.92 |
  |    O          21      -85.24      82.31      0.05  -3.172E+00   0.08 |
  |    O          22      -90.77      86.21      0.05  -3.179E+00   0.11 |
  |    O          23     -162.24     150.32      0.79   1.079E+00   0.79 |
  |    O          24      -88.63      85.78      0.19  -3.226E+00   0.13 |
  |    O          25      -87.96      89.30      0.16  -3.165E+00   0.07 |
  |    O          26      -86.56      75.73      0.09  -3.180E+00   0.12 |
  |    O          27     -166.29     158.82      0.76   1.059E+00   0.95 |
  |    O          28     -165.60     159.12      0.85   1.071E+00   0.88 |
  |    O          29      -87.26      88.84      0.17  -3.164E+00   0.08 |
  |    O          30       -4.28      69.77      0.60   3.877E+00   0.85 |
  |    O          31     -166.11     160.08      0.75   1.058E+00   0.96 |
  |    O          32     -164.91     157.25      0.82   1.070E+00   0.88 |
  |    O          33     -165.02     156.20      0.82   1.067E+00   0.89 |
  |    O          34       -4.05      69.86      0.59   3.879E+00   0.85 |
  |    O          35     -164.66     149.96      0.75   1.077E+00   0.79 |
  |    O          36     -160.49     152.80      0.81   1.100E+00   0.77 |
  |    O          37      -86.91      87.97      0.18  -3.251E+00   0.12 |
  |    O          38     -162.92     143.53      0.79   1.053E+00   0.73 |
  |    O          39      -85.16      84.68      0.25  -3.150E+00   0.09 |
  |    O          40     -163.81     156.64      0.81   1.078E+00   0.87 |
  |    O          41      -89.18      85.47      0.21  -3.161E+00   0.14 |
  |    O          42      -91.45      82.17      0.11  -3.218E+00   0.11 |
  |    O          43      -91.76      85.21      0.11  -3.216E+00   0.10 |
  |    O          44      -89.48      86.13      0.21  -3.162E+00   0.13 |
  |    O          45     -164.12     155.82      0.76   1.084E+00   0.84 |
  |    O          46     -160.56     145.48      0.83   1.095E+00   0.71 |
  |    O          47      -82.97      82.08      0.16  -3.206E+00   0.11 |
  |    O          48     -161.43     141.68      0.80   1.081E+00   0.71 |
  |    O          49      -88.47      84.59      0.19  -3.225E+00   0.13 |
  |    O          50      -89.31      78.80      0.06  -3.191E+00   0.13 |
  |    O          51     -162.87     144.46      0.78   1.054E+00   0.73 |
  |    O          52      -86.98      87.47      0.18  -3.249E+00   0.12 |
  |    O          53      -86.47      74.34      0.10  -3.183E+00   0.12 |
  |    O          54     -165.45     158.44      0.85   1.062E+00   0.89 |
  |    O          55      -89.69      88.39      0.17  -3.222E+00   0.12 |
  |    O          56     -163.60     148.12      0.79   1.021E+00   0.83 |
  |    Zr          1     1623.66    -123.47      0.21  -3.888E+01   0.09 |
  |    Zr          2     1609.47    -116.71      0.11  -3.807E+01   0.08 |
  |    Zr          3     1633.46    -129.96      0.11  -3.885E+01   0.11 |
  |    Zr          4     1628.19    -126.48      0.07  -3.790E+01   0.10 |
  |    Zr          5     1629.35    -124.43      0.05  -3.994E+01   0.05 |
  |    Zr          6     1629.27    -124.16      0.04  -3.978E+01   0.04 |
  |    Zr          7     1628.09    -126.55      0.06  -3.792E+01   0.11 |
  |    Zr          8     1623.23    -123.41      0.22  -3.902E+01   0.08 |
  |    Zr          9     1629.81    -123.80      0.03  -3.972E+01   0.03 |
  |    Zr         10     1623.82    -119.52      0.06  -4.129E+01   0.05 |
  |    Zr         11     1634.05    -129.96      0.10  -3.892E+01   0.10 |
  |    Sn          1     3252.05     -50.03      0.26   1.301E+02   0.17 |
  |    Sn          2     3249.96     -48.62      0.49   1.268E+02   0.08 |
  |    Sn          3     3255.84     -58.32      0.49   1.256E+02   0.05 |
  |    Sn          4     3255.92     -58.58      0.50   1.260E+02   0.06 |
  |    Sn          5     3252.44     -49.66      0.27   1.303E+02   0.17 |
  |    La          1     4707.03     779.89      0.12  -8.275E+01   0.14 |
  |    La          2     4702.70     785.16      0.12  -8.124E+01   0.12 |
  |    La          3     4705.65     754.24      0.04  -8.195E+01   0.07 |
  |    La          4     4757.47     860.65      0.05  -8.586E+01   0.09 |
  |    La          5     4701.65     759.32      0.04  -8.032E+01   0.08 |
  |    La          6     4660.50     659.19      0.10  -7.993E+01   0.15 |
  |    La          7     4801.54     960.72      0.01  -8.809E+01   0.04 |
  |    La          8     4660.63     658.61      0.11  -7.983E+01   0.15 |
  |    La          9     4702.13     760.87      0.04  -8.035E+01   0.08 |
  |    La         10     4706.91     780.31      0.12  -8.282E+01   0.14 |
  |    La         11     4603.36     517.57      0.10  -7.428E+01   0.07 |
  |    La         12     4750.71     875.51      0.05  -8.334E+01   0.05 |
  |    La         13     4750.76     876.50      0.05  -8.337E+01   0.05 |
  |    La         14     4758.98     865.11      0.05  -8.611E+01   0.09 |
  |    La         15     4717.01     736.65      0.03  -8.382E+01   0.09 |
  |    La         16     4705.29     753.20      0.04  -8.189E+01   0.07 |
  ========================================================================
 
 *********************** Forces ***********************
 *                                                    *
 *            Cartesian components (eV/A)             *
 * -------------------------------------------------- *
 *                   x            y            z      *
 *                                                    *
 * O         1      0.00240     -0.00471      0.00095 *
 * O         2     -0.00444     -0.00226     -0.00091 *
 * O         3      0.00676      0.00079      0.00031 *
 * O         4     -0.00619      0.00224     -0.00105 *
 * O         5     -0.00393     -0.00547      0.00037 *
 * O         6     -0.00605      0.00250      0.00262 *
 * O         7      0.00632     -0.00265     -0.00227 *
 * O         8      0.00288      0.00201      0.00054 *
 * O         9     -0.00789     -0.00861      0.00121 *
 * O        10     -0.00695      0.00355     -0.00560 *
 * O        11      0.00521      0.00598      0.00381 *
 * O        12     -0.01183      0.00800      0.00531 *
 * O        13      0.00672     -0.01502      0.00922 *
 * O        14      0.00001      0.01324      0.00818 *
 * O        15      0.00030     -0.00551     -0.00170 *
 * O        16      0.00550      0.00475     -0.00145 *
 * O        17      0.01087      0.00963     -0.00147 *
 * O        18      0.00107      0.00418      0.01107 *
 * O        19     -0.00026      0.00960     -0.00380 *
 * O        20     -0.00741     -0.00373      0.00989 *
 * O        21      0.00138     -0.01089     -0.00048 *
 * O        22      0.00632      0.00746      0.00670 *
 * O        23      0.00425     -0.00348     -0.00426 *
 * O        24      0.00830      0.00210     -0.00828 *
 * O        25     -0.01174      0.00705     -0.00783 *
 * O        26      0.01045     -0.00035     -0.00533 *
 * O        27     -0.01257      0.00964      0.00335 *
 * O        28      0.00708     -0.00084      0.00723 *
 * O        29      0.00062      0.00246      0.01526 *
 * O        30      0.00686     -0.00684     -0.01549 *
 * O        31     -0.00042      0.00572      0.00581 *
 * O        32     -0.00192      0.00166     -0.00571 *
 * O        33      0.00615      0.00429      0.00133 *
 * O        34      0.01674     -0.00731     -0.00568 *
 * O        35     -0.00628      0.00017      0.00298 *
 * O        36     -0.00995     -0.00546     -0.00332 *
 * O        37      0.00216     -0.00604      0.00438 *
 * O        38     -0.00481     -0.00883      0.00353 *
 * O        39      0.00248      0.01124     -0.00785 *
 * O        40     -0.00850      0.00634     -0.00925 *
 * O        41     -0.00424     -0.00098      0.00153 *
 * O        42      0.00214     -0.00929      0.00548 *
 * O        43     -0.00519     -0.00733     -0.00233 *
 * O        44     -0.00554     -0.00035      0.00338 *
 * O        45      0.00643      0.00344     -0.00570 *
 * O        46     -0.00104      0.00226      0.00092 *
 * O        47     -0.00278     -0.00600      0.00687 *
 * O        48      0.00164      0.00399     -0.00350 *
 * O        49      0.00150      0.00339     -0.00093 *
 * O        50      0.00732      0.00669      0.00102 *
 * O        51     -0.00569     -0.01042      0.00127 *
 * O        52     -0.00268     -0.00508      0.00049 *
 * O        53     -0.00360      0.00509     -0.00738 *
 * O        54      0.00870      0.00545     -0.00742 *
 * O        55     -0.00437     -0.00485      0.00325 *
 * O        56     -0.00101      0.00149      0.00353 *
 * Zr        1     -0.00138     -0.00773     -0.01155 *
 * Zr        2     -0.03066     -0.01739      0.00766 *
 * Zr        3     -0.00318     -0.00118     -0.00124 *
 * Zr        4      0.00467     -0.00653     -0.01023 *
 * Zr        5     -0.02391     -0.00119     -0.01432 *
 * Zr        6      0.00352      0.00425     -0.00358 *
 * Zr        7      0.01253      0.01353     -0.00444 *
 * Zr        8      0.02678     -0.00485      0.01489 *
 * Zr        9      0.02435      0.01711      0.00768 *
 * Zr       10      0.00558      0.00603     -0.00725 *
 * Zr       11     -0.00497     -0.00002      0.00564 *
 * Sn        1     -0.00127      0.00777     -0.00149 *
 * Sn        2      0.00071     -0.01694     -0.00413 *
 * Sn        3     -0.01159     -0.00305      0.00144 *
 * Sn        4      0.00099     -0.00281      0.00635 *
 * Sn        5      0.00215      0.00832     -0.00072 *
 * La        1     -0.00972     -0.00883     -0.00708 *
 * La        2     -0.00217     -0.00268      0.01199 *
 * La        3     -0.01825     -0.00529      0.00094 *
 * La        4     -0.01103     -0.00892      0.00476 *
 * La        5     -0.01017     -0.01531     -0.01682 *
 * La        6      0.00727      0.00273     -0.00422 *
 * La        7      0.00780     -0.00595     -0.00440 *
 * La        8      0.00578      0.00258      0.00226 *
 * La        9      0.01966     -0.00001      0.00338 *
 * La       10     -0.00016     -0.00814      0.00436 *
 * La       11     -0.00434      0.00974     -0.00188 *
 * La       12      0.01180      0.01160      0.00116 *
 * La       13      0.00674      0.00930     -0.00540 *
 * La       14     -0.00421     -0.00430      0.00710 *
 * La       15      0.00410      0.01619     -0.00316 *
 * La       16     -0.00871     -0.00215      0.00954 *
 *                                                    *
 ******************************************************
 
 ***************** Stress Tensor *****************
 *                                               *
 *          Cartesian components (GPa)           *
 * --------------------------------------------- *
 *             x             y             z     *
 *                                               *
 *  x      0.014832      0.002743      0.003869  *
 *  y      0.002743     -0.014655     -0.003139  *
 *  z      0.003869     -0.003139     -0.001115  *
 *                                               *
 *  Pressure:    0.0003                          *
 *                                               *
 *************************************************
 
 Pseudo atomic calculation performed for O 2s2 2p4
 
 Converged in 39 iterations to a total energy of -432.6554 eV
 
 
 Pseudo atomic calculation performed for Zr 4s2 4p6 4d2 5s2
 
 Converged in 38 iterations to a total energy of -1285.4931 eV
 
 
 Pseudo atomic calculation performed for Sn 4d10 5s2 5p2
 
 Converged in 48 iterations to a total energy of -2044.5414 eV
 
 
 Pseudo atomic calculation performed for La 5s2 5p6 5d1 6s2
 
 Converged in 34 iterations to a total energy of -968.0372 eV
 
Charge spilling parameter for spin component 1 = 0.23%
 
     Atomic Populations (Mulliken)
     -----------------------------
Species   Ion     s      p      d      f     Total  Charge (e)
==============================================================
  O        1     1.87   5.00   0.00   0.00   6.87    -0.87
  O        2     1.87   5.00   0.00   0.00   6.87    -0.87
  O        3     1.87   5.00   0.00   0.00   6.87    -0.87
  O        4     1.87   5.00   0.00   0.00   6.87    -0.87
  O        5     1.87   5.00   0.00   0.00   6.87    -0.87
  O        6     1.87   5.00   0.00   0.00   6.87    -0.87
  O        7     1.87   5.00   0.00   0.00   6.87    -0.87
  O        8     1.87   5.00   0.00   0.00   6.87    -0.87
  O        9     1.87   4.99   0.00   0.00   6.85    -0.85
  O       10     1.86   4.94   0.00   0.00   6.80    -0.80
  O       11     1.86   4.94   0.00   0.00   6.80    -0.80
  O       12     1.88   5.02   0.00   0.00   6.91    -0.91
  O       13     1.88   5.02   0.00   0.00   6.91    -0.91
  O       14     1.87   4.98   0.00   0.00   6.85    -0.85
  O       15     1.85   4.94   0.00   0.00   6.80    -0.80
  O       16     1.86   4.94   0.00   0.00   6.80    -0.80
  O       17     1.86   4.95   0.00   0.00   6.80    -0.80
  O       18     1.88   5.02   0.00   0.00   6.91    -0.91
  O       19     1.86   4.94   0.00   0.00   6.80    -0.80
  O       20     1.86   4.94   0.00   0.00   6.80    -0.80
  O       21     1.87   4.99   0.00   0.00   6.85    -0.85
  O       22     1.87   4.99   0.00   0.00   6.85    -0.85
  O       23     1.86   4.94   0.00   0.00   6.80    -0.80
  O       24     1.87   4.99   0.00   0.00   6.85    -0.85
  O       25     1.87   4.99   0.00   0.00   6.85    -0.85
  O       26     1.87   4.98   0.00   0.00   6.85    -0.85
  O       27     1.85   4.94   0.00   0.00   6.80    -0.80
  O       28     1.86   4.95   0.00   0.00   6.80    -0.80
  O       29     1.87   4.99   0.00   0.00   6.85    -0.85
  O       30     1.88   5.02   0.00   0.00   6.90    -0.90
  O       31     1.85   4.94   0.00   0.00   6.80    -0.80
  O       32     1.86   4.94   0.00   0.00   6.80    -0.80
  O       33     1.86   4.94   0.00   0.00   6.80    -0.80
  O       34     1.88   5.02   0.00   0.00   6.90    -0.90
  O       35     1.86   4.94   0.00   0.00   6.80    -0.80
  O       36     1.86   4.95   0.00   0.00   6.80    -0.80
  O       37     1.87   4.99   0.00   0.00   6.85    -0.85
  O       38     1.86   4.94   0.00   0.00   6.80    -0.80
  O       39     1.87   4.98   0.00   0.00   6.85    -0.85
  O       40     1.86   4.94   0.00   0.00   6.80    -0.80
  O       41     1.87   4.98   0.00   0.00   6.85    -0.85
  O       42     1.87   4.99   0.00   0.00   6.86    -0.86
  O       43     1.87   4.99   0.00   0.00   6.85    -0.85
  O       44     1.87   4.98   0.00   0.00   6.85    -0.85
  O       45     1.86   4.94   0.00   0.00   6.80    -0.80
  O       46     1.86   4.95   0.00   0.00   6.80    -0.80
  O       47     1.87   4.99   0.00   0.00   6.85    -0.85
  O       48     1.86   4.94   0.00   0.00   6.80    -0.80
  O       49     1.87   4.99   0.00   0.00   6.85    -0.85
  O       50     1.87   4.99   0.00   0.00   6.85    -0.85
  O       51     1.86   4.94   0.00   0.00   6.80    -0.80
  O       52     1.87   4.99   0.00   0.00   6.85    -0.85
  O       53     1.87   4.98   0.00   0.00   6.85    -0.85
  O       54     1.86   4.95   0.00   0.00   6.80    -0.80
  O       55     1.87   4.99   0.00   0.00   6.86    -0.86
  O       56     1.86   4.94   0.00   0.00   6.80    -0.80
  Zr       1     2.37   6.48   1.93   0.00  10.78     1.22
  Zr       2     2.37   6.50   1.92   0.00  10.79     1.21
  Zr       3     2.37   6.48   1.93   0.00  10.78     1.22
  Zr       4     2.37   6.49   1.92   0.00  10.79     1.21
  Zr       5     2.37   6.47   1.93   0.00  10.77     1.23
  Zr       6     2.37   6.47   1.93   0.00  10.77     1.23
  Zr       7     2.37   6.49   1.92   0.00  10.79     1.21
  Zr       8     2.37   6.48   1.93   0.00  10.78     1.22
  Zr       9     2.36   6.47   1.93   0.00  10.76     1.24
  Zr      10     2.37   6.46   1.93   0.00  10.77     1.23
  Zr      11     2.37   6.48   1.93   0.00  10.78     1.22
  Sn       1     1.05   1.32  10.00   0.00  12.37     1.63
  Sn       2     1.05   1.32  10.00   0.00  12.37     1.63
  Sn       3     1.05   1.32  10.00   0.00  12.37     1.63
  Sn       4     1.05   1.32  10.00   0.00  12.37     1.63
  Sn       5     1.05   1.32  10.00   0.00  12.37     1.63
  La       1     2.07   6.16   1.19   0.00   9.42     1.58
  La       2     2.08   6.16   1.19   0.00   9.43     1.57
  La       3     2.07   6.17   1.19   0.00   9.43     1.57
  La       4     2.03   6.15   1.19   0.00   9.37     1.63
  La       5     2.08   6.16   1.19   0.00   9.43     1.57
  La       6     2.09   6.18   1.19   0.00   9.46     1.54
  La       7     2.01   6.14   1.19   0.00   9.34     1.66
  La       8     2.09   6.18   1.19   0.00   9.46     1.54
  La       9     2.08   6.16   1.19   0.00   9.43     1.57
  La      10     2.07   6.16   1.19   0.00   9.42     1.58
  La      11     2.13   6.20   1.19   0.00   9.51     1.49
  La      12     2.04   6.14   1.19   0.00   9.37     1.63
  La      13     2.03   6.14   1.19   0.00   9.37     1.63
  La      14     2.03   6.15   1.19   0.00   9.37     1.63
  La      15     2.07   6.17   1.19   0.00   9.43     1.57
  La      16     2.07   6.17   1.19   0.00   9.43     1.57
==============================================================
 
            Bond              Population      Length (A)
============================================================
         O 37 -- Sn 1              0.35        2.09804
         O 52 -- Sn 5              0.35        2.09825
         O 55 -- Sn 2              0.35        2.09978
         O 47 -- Sn 1              0.35        2.10099
         O 9  -- Sn 5              0.35        2.10100
         O 49 -- Sn 1              0.35        2.10267
         O 24 -- Sn 5              0.35        2.10293
         O 42 -- Sn 3              0.35        2.10352
         O 43 -- Sn 4              0.35        2.10364
         O 50 -- Sn 3              0.34        2.10616
         O 22 -- Sn 4              0.34        2.10703
         O 21 -- Sn 2              0.35        2.10720
         O 29 -- Sn 4              0.35        2.10821
         O 12 -- Sn 4              0.33        2.10846
         O 53 -- Sn 2              0.34        2.10856
         O 26 -- Sn 2              0.34        2.10878
         O 41 -- Sn 1              0.34        2.10887
         O 44 -- Sn 5              0.34        2.10910
         O 18 -- Sn 3              0.33        2.10919
         O 18 -- Sn 2              0.34        2.10933
         O 25 -- Sn 3              0.35        2.10944
         O 39 -- Sn 1              0.34        2.10965
         O 12 -- Sn 2              0.34        2.10966
         O 14 -- Sn 5              0.34        2.10998
         O 54 -- Zr 7              0.42        2.11106
         O 13 -- Sn 4              0.34        2.11228
         O 31 -- Zr 10             0.43        2.11253
         O 34 -- Sn 4              0.33        2.11309
         O 32 -- Zr 9              0.43        2.11310
         O 28 -- Zr 4              0.42        2.11315
         O 30 -- Sn 3              0.33        2.11337
         O 16 -- Zr 5              0.42        2.11349
         O 27 -- Zr 10             0.43        2.11380
         O 15 -- Zr 10             0.44        2.11385
         O 40 -- Zr 3              0.42        2.11387
         O 19 -- Zr 8              0.44        2.11404
         O 28 -- Zr 8              0.42        2.11429
         O 13 -- Sn 3              0.34        2.11435
         O 45 -- Zr 1              0.44        2.11461
         O 16 -- Zr 11             0.42        2.11591
         O 33 -- Zr 3              0.42        2.11595
         O 36 -- Zr 11             0.42        2.11599
         O 30 -- Sn 5              0.33        2.11605
         O 27 -- Zr 6              0.44        2.11633
         O 34 -- Sn 1              0.33        2.11636
         O 43 -- Zr 2              0.44        2.11669
         O 35 -- Zr 2              0.44        2.11669
         O 33 -- Zr 9              0.42        2.11672
         O 31 -- Zr 5              0.44        2.11675
         O 55 -- Zr 2              0.44        2.11694
         O 23 -- Zr 6              0.43        2.11727
         O 22 -- Zr 8              0.45        2.11755
         O 10 -- Zr 5              0.43        2.11760
         O 52 -- Zr 1              0.45        2.11773
         O 32 -- Zr 11             0.42        2.11775
         O 37 -- Zr 8              0.45        2.11784
         O 17 -- Zr 11             0.43        2.11797
         O 20 -- Zr 4              0.43        2.11815
         O 15 -- Zr 9              0.44        2.11838
         O 40 -- Zr 6              0.42        2.11856
         O 10 -- Zr 7              0.43        2.11879
         O 54 -- Zr 1              0.41        2.11881
         O 36 -- Zr 3              0.42        2.11882
         O 42 -- Zr 2              0.44        2.11965
         O 45 -- Zr 10             0.43        2.11987
         O 47 -- Zr 5              0.45        2.12009
         O 48 -- Zr 1              0.43        2.12013
         O 24 -- Zr 7              0.45        2.12016
         O 46 -- Zr 3              0.42        2.12063
         O 20 -- Zr 6              0.42        2.12087
         O 9  -- Zr 6              0.45        2.12099
         O 44 -- Zr 3              0.46        2.12127
         O 23 -- Zr 5              0.43        2.12128
         O 11 -- Zr 9              0.43        2.12144
         O 46 -- Zr 4              0.42        2.12146
         O 49 -- Zr 4              0.45        2.12148
         O 56 -- Zr 1              0.44        2.12171
         O 38 -- Zr 6              0.43        2.12181
         O 41 -- Zr 11             0.46        2.12203
         O 19 -- Zr 10             0.43        2.12243
         O 21 -- Zr 9              0.46        2.12265
         O 14 -- Zr 4              0.46        2.12312
         O 51 -- Zr 2              0.44        2.12344
         O 25 -- Zr 7              0.45        2.12365
         O 11 -- Zr 8              0.43        2.12386
         O 17 -- Zr 7              0.42        2.12388
         O 51 -- Zr 5              0.43        2.12421
         O 29 -- Zr 4              0.45        2.12424
         O 39 -- Zr 7              0.46        2.12453
         O 48 -- Zr 9              0.43        2.12459
         O 35 -- Zr 10             0.43        2.12485
         O 50 -- Zr 1              0.45        2.12495
         O 38 -- Zr 2              0.43        2.12644
         O 26 -- Zr 11             0.46        2.12653
         O 53 -- Zr 3              0.46        2.12804
         O 56 -- Zr 8              0.43        2.12832
         O 7  -- La 7              0.18        2.35830
         O 3  -- La 14             0.18        2.35964
         O 4  -- La 4              0.18        2.36019
         O 1  -- La 1              0.16        2.36045
         O 6  -- La 14             0.20        2.36048
         O 2  -- La 12             0.18        2.36067
         O 1  -- La 10             0.16        2.36075
         O 8  -- La 13             0.17        2.36077
         O 7  -- La 3              0.18        2.36082
         O 8  -- La 4              0.20        2.36095
         O 2  -- La 7              0.21        2.36098
         O 2  -- La 13             0.18        2.36105
         O 6  -- La 12             0.17        2.36109
         O 7  -- La 16             0.18        2.36136
         O 2  -- La 2              0.19        2.36178
         O 4  -- La 9              0.16        2.36179
         O 8  -- La 10             0.19        2.36187
         O 5  -- La 2              0.15        2.36201
         O 1  -- La 15             0.19        2.36206
         O 4  -- La 6              0.18        2.36213
         O 4  -- La 16             0.18        2.36232
         O 6  -- La 1              0.19        2.36237
         O 8  -- La 5              0.17        2.36240
         O 3  -- La 5              0.16        2.36251
         O 3  -- La 3              0.18        2.36259
         O 3  -- La 8              0.18        2.36270
         O 5  -- La 8              0.16        2.36275
         O 5  -- La 6              0.16        2.36304
         O 6  -- La 9              0.17        2.36309
         O 5  -- La 15             0.19        2.36319
         O 7  -- La 11             0.17        2.36505
         O 1  -- La 11             0.15        2.36558
         O 23 -- La 11             0.13        2.66012
         O 40 -- La 9              0.12        2.66171
         O 36 -- La 2              0.12        2.66178
         O 54 -- La 3              0.13        2.66233
         O 28 -- La 16             0.13        2.66347
         O 16 -- La 5              0.12        2.66366
         O 56 -- La 2              0.13        2.66396
         O 20 -- La 12             0.11        2.66501
         O 33 -- La 13             0.11        2.66507
         O 32 -- La 12             0.11        2.66588
         O 10 -- La 13             0.11        2.66595
         O 48 -- La 6              0.13        2.66616
         O 46 -- La 1              0.13        2.66655
         O 11 -- La 8              0.13        2.66677
         O 13 -- La 11             0.23        2.66737
         O 17 -- La 10             0.12        2.66748
         O 45 -- La 5              0.13        2.66800
         O 19 -- La 9              0.13        2.66845
         O 38 -- La 10             0.13        2.66995
         O 51 -- La 1              0.13        2.67060
         O 30 -- La 11             0.24        2.67100
         O 42 -- La 16             0.17        2.67198
         O 34 -- La 11             0.24        2.67208
         O 43 -- La 3              0.17        2.67297
         O 27 -- La 9              0.12        2.67311
         O 31 -- La 5              0.12        2.67373
         O 35 -- La 3              0.13        2.67381
         O 35 -- La 16             0.13        2.67392
         O 15 -- La 12             0.12        2.67489
         O 15 -- La 13             0.12        2.67496
         O 50 -- La 5              0.17        2.67500
         O 27 -- La 12             0.12        2.67515
         O 31 -- La 13             0.12        2.67571
         O 54 -- La 7              0.12        2.67571
         O 32 -- La 14             0.13        2.67574
         O 28 -- La 7              0.12        2.67611
         O 9  -- La 11             0.18        2.67619
         O 20 -- La 7              0.13        2.67642
         O 10 -- La 7              0.13        2.67656
         O 25 -- La 8              0.18        2.67675
         O 55 -- La 1              0.17        2.67679
         O 33 -- La 4              0.13        2.67680
         O 47 -- La 11             0.18        2.67692
         O 22 -- La 9              0.17        2.67695
         O 55 -- La 10             0.17        2.67703
         O 46 -- La 15             0.14        2.67737
         O 49 -- La 12             0.16        2.67752
         O 18 -- La 5              0.23        2.67755
         O 29 -- La 6              0.18        2.67756
         O 24 -- La 13             0.16        2.67763
         O 17 -- La 15             0.14        2.67764
         O 16 -- La 14             0.13        2.67814
         O 53 -- La 9              0.18        2.67820
         O 51 -- La 14             0.13        2.67826
         O 12 -- La 9              0.23        2.67866
         O 26 -- La 5              0.18        2.67884
         O 40 -- La 4              0.13        2.67895
         O 38 -- La 4              0.13        2.67922
         O 52 -- La 6              0.18        2.67984
         O 45 -- La 3              0.13        2.68010
         O 18 -- La 8              0.24        2.68017
         O 37 -- La 8              0.18        2.68032
         O 24 -- La 10             0.18        2.68060
         O 49 -- La 1              0.18        2.68069
         O 19 -- La 16             0.13        2.68074
         O 11 -- La 14             0.13        2.68090
         O 12 -- La 6              0.24        2.68095
         O 14 -- La 6              0.18        2.68107
         O 39 -- La 8              0.18        2.68117
         O 39 -- La 3              0.19        2.68163
         O 36 -- La 15             0.15        2.68179
         O 48 -- La 4              0.13        2.68184
         O 52 -- La 2              0.17        2.68197
         O 14 -- La 16             0.19        2.68206
         O 43 -- La 14             0.17        2.68238
         O 44 -- La 2              0.18        2.68243
         O 56 -- La 7              0.13        2.68250
         O 37 -- La 2              0.17        2.68252
         O 42 -- La 4              0.17        2.68285
         O 41 -- La 2              0.18        2.68305
         O 44 -- La 13             0.17        2.68343
         O 30 -- La 16             0.24        2.68363
         O 21 -- La 8              0.18        2.68411
         O 41 -- La 12             0.17        2.68412
         O 34 -- La 3              0.24        2.68422
         O 21 -- La 6              0.18        2.68430
         O 13 -- La 15             0.25        2.68654
         O 53 -- La 1              0.18        2.68657
         O 26 -- La 10             0.18        2.68738
         O 25 -- La 15             0.20        2.68806
         O 22 -- La 14             0.18        2.68823
         O 50 -- La 4              0.18        2.68824
         O 29 -- La 15             0.20        2.68854
         O 23 -- La 7              0.13        2.69096
         O 9  -- La 10             0.18        2.69440
         O 47 -- La 1              0.18        2.69500
         O 12 -- O 22             -0.06        2.79445
         O 13 -- O 34             -0.05        2.79591
         O 18 -- O 50             -0.06        2.79610
         O 13 -- O 30             -0.05        2.79620
         O 12 -- O 29             -0.06        2.79628
         O 18 -- O 25             -0.06        2.79682
         O 34 -- O 43             -0.06        2.79797
         O 44 -- O 52             -0.06        2.79807
         O 37 -- O 41             -0.06        2.79857
         O 30 -- O 42             -0.06        2.79897
         O 41 -- O 49             -0.06        2.79945
         O 18 -- O 26             -0.06        2.79963
         O 24 -- O 44             -0.06        2.79964
         O 12 -- O 53             -0.06        2.79978
         O 37 -- O 39             -0.06        2.79984
         O 14 -- O 52             -0.06        2.79990
         O 22 -- O 43             -0.06        2.80015
         O 9  -- O 30             -0.06        2.80024
         O 34 -- O 47             -0.06        2.80070
         O 53 -- O 55             -0.06        2.80109
         O 26 -- O 55             -0.06        2.80148
         O 42 -- O 50             -0.06        2.80250
         O 18 -- O 21             -0.06        2.80362
         O 47 -- O 49             -0.06        2.80382
         O 9  -- O 24             -0.06        2.80389
         O 12 -- O 21             -0.06        2.80422
         O 10 -- O 31             -0.04        2.80890
         O 15 -- O 33             -0.04        2.80921
         O 20 -- O 27             -0.04        2.80962
         O 15 -- O 32             -0.04        2.80999
         O 34 -- O 39             -0.05        2.81138
         O 16 -- O 31             -0.03        2.81142
         O 27 -- O 40             -0.03        2.81152
         O 14 -- O 30             -0.05        2.81171
         O 19 -- O 27             -0.03        2.81250
         O 31 -- O 45             -0.03        2.81257
         O 10 -- O 24             -0.03        2.81320
         O 20 -- O 49             -0.03        2.81341
         O 13 -- O 29             -0.05        2.81379
         O 13 -- O 25             -0.05        2.81381
         O 19 -- O 28             -0.03        2.81422
         O 45 -- O 54             -0.03        2.81450
         O 15 -- O 27             -0.03        2.81497
         O 20 -- O 28             -0.03        2.81556
         O 37 -- O 56             -0.03        2.81559
         O 10 -- O 54             -0.03        2.81579
         O 15 -- O 31             -0.03        2.81604
         O 46 -- O 49             -0.03        2.81705
         O 52 -- O 56             -0.03        2.81707
         O 17 -- O 24             -0.03        2.81721
         O 16 -- O 26             -0.03        2.81728
         O 16 -- O 32             -0.03        2.81741
         O 38 -- O 55             -0.03        2.81756
         O 36 -- O 41             -0.03        2.81762
         O 32 -- O 41             -0.03        2.81785
         O 40 -- O 53             -0.03        2.81805
         O 51 -- O 55             -0.03        2.81810
         O 45 -- O 50             -0.03        2.81811
         O 36 -- O 44             -0.03        2.81828
         O 33 -- O 44             -0.03        2.81858
         O 23 -- O 47             -0.03        2.81880
         O 33 -- O 40             -0.03        2.81885
         O 19 -- O 22             -0.03        2.81891
         O 35 -- O 42             -0.03        2.81949
         O 11 -- O 37             -0.03        2.81978
         O 14 -- O 28             -0.03        2.81991
         O 9  -- O 23             -0.03        2.81994
         O 35 -- O 43             -0.03        2.82032
         O 39 -- O 54             -0.03        2.82040
         O 48 -- O 52             -0.03        2.82059
         O 35 -- O 45             -0.03        2.82169
         O 19 -- O 35             -0.03        2.82282
         O 16 -- O 51             -0.03        2.82332
         O 28 -- O 56             -0.03        2.82353
         O 33 -- O 48             -0.03        2.82398
         O 38 -- O 40             -0.03        2.82455
         O 11 -- O 32             -0.03        2.82477
         O 54 -- O 56             -0.03        2.82535
         O 10 -- O 23             -0.03        2.82689
         O 17 -- O 36             -0.03        2.82834
         O 17 -- O 26             -0.03        2.82845
         O 20 -- O 23             -0.03        2.82865
         O 36 -- O 46             -0.03        2.82869
         O 46 -- O 53             -0.03        2.82886
         O 38 -- O 42             -0.03        2.82902
         O 21 -- O 48             -0.03        2.82930
         O 47 -- O 51             -0.03        2.82984
         O 43 -- O 51             -0.03        2.82988
         O 11 -- O 21             -0.03        2.83012
         O 9  -- O 38             -0.03        2.83046
         O 17 -- O 25             -0.03        2.83413
         O 29 -- O 46             -0.03        2.83416
         O 11 -- O 22             -0.03        2.83441
         O 48 -- O 50             -0.03        2.83519
         O 25 -- O 39             -0.03        2.83617
         O 14 -- O 29             -0.03        2.83624
============================================================
 

Writing analysis data to Zr11_33_nmr.castep_bin

Writing model to Zr11_33_nmr.check
 
 A BibTeX formatted list of references used in this run has been written to 
 Zr11_33_nmr.bib
 
Initialisation time =     34.68 s
Calculation time    =   4337.88 s
Finalisation time   =     12.23 s
Total time          =   4384.79 s
Peak Memory Use     = 1359364 kB
  
Overall parallel efficiency rating: Good (70%)                                  
  
Data was distributed by:-
G-vector (24-way); efficiency rating: Good (72%)                                
k-point (14-way); efficiency rating: Excellent (95%)                            
