 +-------------------------------------------------+
 |                                                 |
 |      CCC   AA    SSS  TTTTT  EEEEE  PPPP        |
 |     C     A  A  S       T    E      P   P       |
 |     C     AAAA   SS     T    EEE    PPPP        |
 |     C     A  A     S    T    E      P           |
 |      CCC  A  A  SSS     T    EEEEE  P           |
 |                                                 |
 +-------------------------------------------------+
 |                                                 |
 | Welcome to Academic Release CASTEP version 16.11|          
 | Ab Initio Total Energy Program                  |
 |                                                 |
 | Authors:                                        |
 | M. Segall, M. Probert, C. Pickard, P. Hasnip,   |
 | S. Clark, K. Refson, J. R. Yates, M. Payne      |
 |                                                 |
 | Contributors:                                   |
 | P. Lindan, P. Haynes, J. White, V. Milman,      |
 | N. Govind, M. Gibson, P. Tulip, V. Cocula,      |
 | B. Montanari, D. Quigley, M. Glover,            |
 | L. Bernasconi, A. Perlov, M. Plummer,           |
 | E. McNellis, J. Meyer, J. Gale, D. Jochym       |
 | J. Aarons, B. Walker, R. Gillen, D. Jones       |
 | T. Green, I. J. Bush, C. J. Armstrong,          |
 | E. J. Higgins, E. L. Brown, M. S. McFly         |
 |                                                 |
 | Copyright (c) 2000 - 2015                       |
 |                                                 |
 |     Distributed under the terms of an           |
 |     Agreement between the United Kingdom        |
 |     Car-Parrinello (UKCP) Consortium,           |
 |     Daresbury Laboratory and Accelrys, Inc.     |
 |                                                 |
 | Please cite                                     |
 |                                                 |
 |     "First principles methods using CASTEP"     |
 |                                                 |
 |         Zeitschrift fuer Kristallographie       |
 |           220(5-6) pp. 567-570 (2005)           |
 |                                                 |
 | S. J. Clark, M. D. Segall, C. J. Pickard,       |
 | P. J. Hasnip, M. J. Probert, K. Refson,         |
 | M. C. Payne                                     |
 |                                                 |
 |       in all publications arising from          |
 |              your use of CASTEP                 |
 |                                                 |
 +-------------------------------------------------+
 
 
 Compiled for linux_x86_64_ifort16 on Sat, 23 Jul 2016 23:44:54 +0100
 from code version 
 203e84763863+ Castep161_branch Fri, 04 Mar 2016 19:21:07 +0000
 Compiler: Intel Fortran 16.0.3.210; Optimisation: fast
 MATHLIBS: Intel MKL(11.3.3) (LAPACK version 3.6.0)
 FFT Lib : mkl
 Fundamental constants values: CODATA 2010
 
 Run started: Fri, 20 Apr 2018 09:23:02 +0100
 +-------------------------------------------------+
 |                                                 |
 |           N   N    M   M    RRRR                |
 |           NN  N    MM MM    R   R               |
 |           N N N    M M M    RRRR                |
 |           N  NN    M   M    R  R                |
 |           N   N    M   M    R   R               |
 |                                                 |
 +-------------------------------------------------+
 |                                                 |
 | Welcome to Materials Studio CASTEP-NMR          |
 |                                                 |
 | Authors:                                        |
 | J.R. Yates, C.J. Pickard, F. Mauri              |
 |                                                 |
 | Contributors:                                   |
 | T.F.G. Green, S.A. Joyce                        |
 |                                                 |
 | Copyright (c) 2004 - 2015                       |
 |                                                 |
 | Please cite the appropriate publications in all |
 | work arising from your use of CASTEP NMR.       |
 |                                                 |
 | For NMR Shielding Tensors cite:                 |
 |    "All-electron magnetic response with         |
 |    pseudopotentials: NMR chemical shifts",      |
 |    C. J. Pickard, F. Mauri;                     |
 |    Physical Review B63 245101 (2001), and       |
 |                                                 |
 |    "Calculation of NMR Chemical Shifts          |
 |    for extended systems using                   |
 |    Ultrasoft Pseudopotentials",                 |
 |    J. R. Yates, C. J. Pickard and F. Mauri      |
 |    Physical Review B76 024401 (2007)            |
 |                                                 |
 | For Electric Field Gradients cite:              |
 |   "Accurate First Principles Prediction of 17O  |
 |    NMR Parameters in SiO2: Assignment of the    |
 |    Zeolite Ferrierite Spectrum"                 |
 |    M. Profeta, F. Mauri and C. J. Pickard       |
 |    J. Amer. Chem. Soc. 125 541 (2003)           |
 |                                                 |
 | For Spin-Spin (J) Couplings cite:               |
 |   "A first principles theory of NMR J-coupling  |
 |   in solid-state systems"                       |
 |   S.A. Joyce, J.R. Yates, C.J. Pickard, F. Mauri|
 |   J. Chem. Phys. 127 204107 (2007)              |
 |                                                 |
 |   "Relativistic NMR J-coupling with ultrasoft   |
 |   pseudopotentials and the zeroth-order regular |
 |   approximation"                                |
 |   T.F.G. Green and J.R. Yates                   |
 |   J. Chem. Phys. 140 234106 (2014)              |
 |                                                 |
 +-------------------------------------------------+
 
 
 Atomic calculation performed for O: 1s2 2s2 2p4
 
 Converged in 44 iterations to an ae energy of -2040.855 eV
 
 
 Atomic calculation performed for O: 1s2 2s2 2p4
 
 Exceeded max iterations: converged to 0.000000062 eV
 
   ============================================================                
   | Pseudopotential Report - Date of generation 20-04-2018   |                
   ------------------------------------------------------------                
   | Element: O Ionic charge:  6.00 Level of theory: PBE      |                
   | Atomic Solver: ZORA (scalar)                             |                
   |                                                          |                
   |               Reference Electronic Structure             |                
   |         Orbital         Occupation         Energy        |                
   |            2s              2.000           -0.881        |                
   |            2p              4.000           -0.332        |                
   |                                                          |                
   |                 Pseudopotential Definition               |                
   |        Beta     l      e      Rc     scheme   norm       |                
   |          1      0   -0.881   1.100     qc      0         |                
   |          2      0    0.250   1.100     qc      0         |                
   |          3      1   -0.332   1.100     qc      0         |                
   |          4      1    0.250   1.100     qc      0         |                
   |         loc     2    0.000   1.100     pn      0         |                
   |                                                          |                
   | Augmentation charge Rinner = 0.769                       |                
   | Partial core correction Rc = 0.769                       |                
   ------------------------------------------------------------                
   | "2|1.1|15|18|20|20:21(qc=7)"                             |                
   ------------------------------------------------------------                
   |      Author: Chris J. Pickard, Cambridge University      |                
   ============================================================                
 
 Atomic calculation performed for Zr: 1s2 2s2 2p6 3s2 3p6 3d10 4s2 4p6 4d2 5s2
 
 Converged in 53 iterations to an ae energy of -97719.888 eV
 
 
 Atomic calculation performed for Zr: 1s2 2s2 2p6 3s2 3p6 3d10 4s2 4p6 4d2 5s2
 
 Exceeded max iterations: converged to 0.000000970 eV
 
 Warning: ion_atom_descreen_psp: negative charge density encountered
   ============================================================                
   | Pseudopotential Report - Date of generation 20-04-2018   |                
   ------------------------------------------------------------                
   | Element: Zr Ionic charge: 12.00 Level of theory: PBE     |                
   | Atomic Solver: ZORA (scalar)                             |                
   |                                                          |                
   |               Reference Electronic Structure             |                
   |         Orbital         Occupation         Energy        |                
   |            4s              2.000           -2.003        |                
   |            4p              6.000           -1.193        |                
   |            5s              2.000           -0.163        |                
   |            4d              2.000           -0.132        |                
   |                                                          |                
   |                 Pseudopotential Definition               |                
   |        Beta     l      e      Rc     scheme   norm       |                
   |          1      0   -2.003   2.105     qc      0         |                
   |          2      0   -0.163   2.105     qc      0         |                
   |          3      0    0.250   2.105     qc      0         |                
   |          4      1   -1.193   2.105     qc      0         |                
   |          5      1    0.250   2.105     qc      0         |                
   |          6      2   -0.132   2.105     qc      0         |                
   |          7      2    0.250   2.105     qc      0         |                
   |         loc     3    0.000   2.105     pn      0         |                
   |                                                          |                
   | Augmentation charge Rinner = 1.471                       |                
   | Partial core correction Rc = 1.471                       |                
   ------------------------------------------------------------                
   | "3|2.1|7|8|9|40U:50:41:42"                               |                
   ------------------------------------------------------------                
   |      Author: Chris J. Pickard, Cambridge University      |                
   ============================================================                
 
 Atomic calculation performed for Sn:
 1s2 2s2 2p6 3s2 3p6 3d10 4s2 4p6 4d10 5s2 5p2
 
 Converged in 58 iterations to an ae energy of -167539.320 eV
 
 
 Atomic calculation performed for Sn:
 1s2 2s2 2p6 3s2 3p6 3d10 4s2 4p6 4d10 5s2 5p2
 
 Exceeded max iterations: converged to 0.000001154 eV
 
   ============================================================                
   | Pseudopotential Report - Date of generation 20-04-2018   |                
   ------------------------------------------------------------                
   | Element: Sn Ionic charge: 14.00 Level of theory: PBE     |                
   | Atomic Solver: ZORA (scalar)                             |                
   |                                                          |                
   |               Reference Electronic Structure             |                
   |         Orbital         Occupation         Energy        |                
   |            4d             10.000           -0.950        |                
   |            5s              2.000           -0.388        |                
   |            5p              2.000           -0.136        |                
   |                                                          |                
   |                 Pseudopotential Definition               |                
   |        Beta     l      e      Rc     scheme   norm       |                
   |          1      0   -0.388   2.199     qc      0         |                
   |          2      0    0.250   2.199     qc      0         |                
   |          3      1   -0.136   2.199     qc      0         |                
   |          4      1    0.250   2.199     qc      0         |                
   |          5      2   -0.950   2.199     qc      0         |                
   |          6      2    0.250   2.199     qc      0         |                
   |         loc     3    0.000   2.199     pn      0         |                
   |                                                          |                
   | Augmentation charge Rinner = 1.537                       |                
   | Partial core correction Rc = 1.537                       |                
   ------------------------------------------------------------                
   | "3|2.2|7|8|9|50:51:42"                                   |                
   ------------------------------------------------------------                
   |      Author: Chris J. Pickard, Cambridge University      |                
   ============================================================                
 
 Atomic calculation performed for La:
 1s2 2s2 2p6 3s2 3p6 3d10 4s2 4p6 4d10 5s2 5p6 5d1 6s2
 
 Converged in 56 iterations to an ae energy of -230121.495 eV
 
 
 Atomic calculation performed for La:
 1s2 2s2 2p6 3s2 3p6 3d10 4s2 4p6 4d10 5s2 5p6 5d1 6s2
 
 Exceeded max iterations: converged to 0.000000907 eV
 
 Warning: ion_atom_descreen_psp: negative charge density encountered
   ============================================================                
   | Pseudopotential Report - Date of generation 20-04-2018   |                
   ------------------------------------------------------------                
   | Element: La Ionic charge: 11.00 Level of theory: PBE     |                
   | Atomic Solver: ZORA (scalar)                             |                
   |                                                          |                
   |               Reference Electronic Structure             |                
   |         Orbital         Occupation         Energy        |                
   |            5s              2.000           -1.430        |                
   |            5p              6.000           -0.823        |                
   |            6s              2.000           -0.135        |                
   |            5d              1.000           -0.114        |                
   |                                                          |                
   |                 Pseudopotential Definition               |                
   |        Beta     l      e      Rc     scheme   norm       |                
   |          1      0   -1.430   2.298     qc      0         |                
   |          2      0   -0.135   2.298     qc      0         |                
   |          3      0    0.250   2.298     qc      0         |                
   |          4      1   -0.823   2.298     qc      0         |                
   |          5      1    0.250   2.298     qc      0         |                
   |          6      2   -0.114   2.298     qc      0         |                
   |          7      2    0.250   2.298     qc      0         |                
   |         loc     2    0.000   2.298     pn      0         |                
   |                                                          |                
   | Augmentation charge Rinner = 1.606                       |                
   | Partial core correction Rc = 1.606                       |                
   ------------------------------------------------------------                
   | "2|2.3|5|6|7|50U:60:51:52(qc=4.5)"                       |                
   ------------------------------------------------------------                
   |      Author: Chris J. Pickard, Cambridge University      |                
   ============================================================                
 
 Pseudo atomic calculation performed for O 2s2 2p4
 
 Converged in 39 iterations to a total energy of -432.6554 eV
 
 
 Pseudo atomic calculation performed for Zr 4s2 4p6 4d2 5s2
 
 Converged in 38 iterations to a total energy of -1285.4931 eV
 
 
 Pseudo atomic calculation performed for Sn 4d10 5s2 5p2
 
 Converged in 48 iterations to a total energy of -2044.5414 eV
 
 
 Pseudo atomic calculation performed for La 5s2 5p6 5d1 6s2
 
 Converged in 34 iterations to a total energy of -968.0372 eV
 
 Calculation parallelised over 56 processes.
 Data is distributed by G-vector(4-way) and k-point(14-way)

 ************************************ Title ************************************
 nmr testing

 ***************************** General Parameters ******************************
  
 output verbosity                               : normal  (1)
 write checkpoint data to                       : 010.check
 type of calculation                            : Magnetic Resonance
 stress calculation                             : on
 density difference calculation                 : off
 electron localisation func (ELF) calculation   : off
 Hirshfeld analysis                             : off
 unlimited duration calculation
 timing information                             : on
 memory usage estimate                          : on
 write final potential to formatted file        : off
 write final density to formatted file          : off
 write structure in CIF formatted file          : on
 write structure in CELL formatted file         : on
 write BibTeX reference list                    : on
 write OTFG pseudopotential files               : on
 checkpoint writing                             : both castep_bin and check files
  
 output         length unit                     : A
 output           mass unit                     : amu
 output           time unit                     : ps
 output         charge unit                     : e
 output           spin unit                     : hbar/2
 output         energy unit                     : eV
 output          force unit                     : eV/A
 output       velocity unit                     : A/ps
 output       pressure unit                     : GPa
 output     inv_length unit                     : 1/A
 output      frequency unit                     : cm-1
 output force constant unit                     : eV/A**2
 output         volume unit                     : A**3
 output   IR intensity unit                     : (D/A)**2/amu
 output         dipole unit                     : D
 output         efield unit                     : eV/A/e
 output        entropy unit                     : J/mol/K
  
 wavefunctions paging                           : none
 random number generator seed                   : randomised (92303935)
 data distribution                              : optimal for this architecture
 optimization strategy                          : maximize speed(+++)

 *********************** Exchange-Correlation Parameters ***********************
  
 using functional                               : Perdew Burke Ernzerhof
 relativistic treatment                         : ZORA
 DFT+D: Semi-empirical dispersion correction    : off

 ************************* Pseudopotential Parameters **************************
  
 pseudopotential representation                 : reciprocal space
 <beta|phi> representation                      : reciprocal space
 spin-orbit coupling                            : off

 **************************** Basis Set Parameters *****************************
  
 plane wave basis set cut-off                   :   816.3416   eV
 size of standard grid                          :     1.7500
 size of   fine   gmax                          :    25.6161   1/A
 finite basis set correction                    : automatic
 number of sample energies                      :          3
           sample  spacing                      :     5.0000   eV

 **************************** Electronic Parameters ****************************
  
 number of  electrons                           :  720.0    
 net charge of system                           :  0.000    
 treating system as non-spin-polarized
 number of bands                                :        432

 ********************* Electronic Minimization Parameters **********************
  
 Method: Treating system as metallic with density mixing treatment of electrons,
         and number of  SD  steps               :          1
         and number of  CG  steps               :          4
  
 total energy / atom convergence tol.           : 0.1000E-08   eV
 eigen-energy convergence tolerance             : 0.2444E-09   eV
 max force / atom convergence tol.              : ignored
 convergence tolerance window                   :          3   cycles
 max. number of SCF cycles                      :         50
 number of fixed-spin iterations                :         10
 smearing scheme                                : Gaussian
 smearing width                                 : 0.2000       eV
 Fermi energy convergence tolerance             : 0.2721E-13   eV
 periodic dipole correction                     : NONE

 ************************** Density Mixing Parameters **************************
  
 density-mixing scheme                          : Broyden
 max. length of mixing history                  :         20
 charge density mixing amplitude                : 0.8000    
 cut-off energy for mixing                      :  816.3       eV

 *********************** Population Analysis Parameters ************************
  
 Population analysis with cutoff                :  3.000       A

 ************************ Magnetic Resonance Parameters ************************
  
 Magnetic Resonance Property                    : Chemical Shielding + EFG
 Position Operator Method                       : crystal
 max. number of MagRes CG steps                 :        250
 convergence tolerance window                   :          2   cycles
 energy convergence tolerance                   : 0.1000E-11   eV
 band convergence tolerance                     : 0.1000E-08   eV

 *******************************************************************************
  
 
                           -------------------------------
                                      Unit Cell
                           -------------------------------
        Real Lattice(A)                      Reciprocal Lattice(1/A)
  10.9022732   0.0052906   0.0022871        0.5763190  -0.0002799  -0.0001210
   0.0052916  10.8991849  -0.0053120       -0.0002798   0.5764824   0.0002809
   0.0022873  -0.0053109  10.9020104       -0.0001210   0.0002809   0.5763329
 
                       Lattice parameters(A)       Cell Angles
                    a =   10.902275          alpha =   90.055830
                    b =   10.899187          beta  =   89.975973
                    c =   10.902012          gamma =   89.944384
 
                       Current cell volume = 1295.440436       A**3
 
                           -------------------------------
                                     Cell Contents
                           -------------------------------
                         Total number of ions in cell =   88
                      Total number of species in cell =    4
                        Max number of any one species =   56
 
            xxxxxxxxxxxxxxxxxxxxxxxxxxxxxxxxxxxxxxxxxxxxxxxxxxxxxxxxxxxx
            x  Element    Atom        Fractional coordinates of atoms  x
            x            Number           u          v          w      x
            x----------------------------------------------------------x
            x  O            1         0.124857   0.125025   0.124983   x 
            x  O            2         0.625161   0.125257   0.625010   x 
            x  O            3         0.125409   0.624899   0.625294   x 
            x  O            4         0.625129   0.624878   0.125199   x 
            x  O            5         0.875005   0.374747   0.375151   x 
            x  O            6         0.875283   0.875097   0.875394   x 
            x  O            7         0.374980   0.374973   0.874837   x 
            x  O            8         0.375194   0.875119   0.375119   x 
            x  O            9         0.419429   0.125301   0.124520   x 
            x  O           10         0.330194   0.124691   0.624754   x 
            x  O           11         0.830736   0.625316   0.624489   x 
            x  O           12         0.921068   0.625688   0.125866   x 
            x  O           13         0.125999   0.420383   0.125171   x 
            x  O           14         0.623429   0.329133   0.124675   x 
            x  O           15         0.625688   0.830822   0.625279   x 
            x  O           16         0.124426   0.920732   0.623879   x 
            x  O           17         0.124650   0.123554   0.421022   x 
            x  O           18         0.124677   0.625077   0.330713   x 
            x  O           19         0.625257   0.625652   0.830212   x 
            x  O           20         0.624391   0.124348   0.920564   x 
            x  O           21         0.875278   0.669176   0.375683   x 
            x  O           22         0.873875   0.579271   0.874415   x 
            x  O           23         0.375177   0.079621   0.875996   x 
            x  O           24         0.374662   0.170877   0.373442   x 
            x  O           25         0.170565   0.375645   0.374405   x 
            x  O           26         0.080207   0.874348   0.375250   x 
            x  O           27         0.580703   0.874925   0.874671   x 
            x  O           28         0.671013   0.376450   0.874645   x 
            x  O           29         0.874740   0.375308   0.080182   x 
            x  O           30         0.374528   0.374700   0.169410   x 
            x  O           31         0.375868   0.874314   0.671064   x 
            x  O           32         0.874491   0.874686   0.580721   x 
            x  O           33         0.670449   0.874753   0.375875   x 
            x  O           34         0.080285   0.374642   0.875466   x 
            x  O           35         0.376567   0.670589   0.875022   x 
            x  O           36         0.874955   0.079949   0.375576   x 
            x  O           37         0.874050   0.375920   0.671264   x 
            x  O           38         0.375033   0.876115   0.079256   x 
            x  O           39         0.124165   0.330114   0.624146   x 
            x  O           40         0.624872   0.920538   0.123747   x 
            x  O           41         0.921274   0.124081   0.624039   x 
            x  O           42         0.329266   0.623887   0.125031   x 
            x  O           43         0.125051   0.625075   0.919542   x 
            x  O           44         0.624331   0.125591   0.329240   x 
            x  O           45         0.420430   0.625893   0.625177   x 
            x  O           46         0.830698   0.124924   0.125024   x 
            x  O           47         0.125485   0.125359   0.830287   x 
            x  O           48         0.625880   0.625245   0.420450   x 
            x  O           49         0.874145   0.169904   0.874155   x 
            x  O           50         0.373753   0.579462   0.374866   x 
            x  O           51         0.169534   0.874927   0.875046   x 
            x  O           52         0.579242   0.374413   0.374322   x 
            x  O           53         0.875182   0.874102   0.170418   x 
            x  O           54         0.375024   0.375078   0.580690   x 
            x  O           55         0.125031   0.829409   0.126562   x 
            x  O           56         0.625578   0.420054   0.624952   x 
            x  Zr           1         0.499911   0.499911   0.500237   x 
            x  Zr           2         0.249850   0.749995  -0.000157   x 
            x  Zr           3         0.750349   1.000093   0.249863   x 
            x  Zr           4         0.999908   0.249986   0.749712   x 
            x  Zr           5         0.749354   0.249959   0.999970   x 
            x  Zr           6         0.250026   0.999858   0.750418   x 
            x  Zr           7         0.249870   0.250024   0.499758   x 
            x  Zr           8         0.000274   0.500101  -0.000011   x 
            x  Sn           1         0.999607   0.750206   0.250963   x 
            x  Sn           2         0.499826   0.000104   0.999676   x 
            x  Sn           3         0.748908   0.501489   0.748727   x 
            x  Sn           4         0.750174   0.750004   0.500169   x 
            x  Sn           5         0.249670   0.499886   0.249825   x 
            x  Sn           6         0.499366   0.249993   0.249390   x 
            x  Sn           7         0.500968   0.749791   0.749597   x 
            x  Sn           8         0.998734   0.998508   0.498900   x 
            x  La           1         0.000070   0.000239   0.999933   x 
            x  La           2         0.749722   0.249997   0.499719   x 
            x  La           3         0.249937   0.499777   0.750079   x 
            x  La           4         0.500206   0.750002   0.250205   x 
            x  La           5         0.250542   0.749796   0.500366   x 
            x  La           6         0.750187   0.499782   0.249953   x 
            x  La           7         0.499486   0.250137   0.749371   x 
            x  La           8         0.000496   0.499392   0.500382   x 
            x  La           9         0.750369   0.750207   0.000538   x 
            x  La          10         0.250050   0.000005   0.249885   x 
            x  La          11         0.249355   0.250003   0.999362   x 
            x  La          12         0.750398   0.000620   0.750497   x 
            x  La          13         0.499958   0.000223   0.500172   x 
            x  La          14         0.000818   0.750000   0.750815   x 
            x  La          15         0.999385   0.249869   0.249476   x 
            x  La          16         0.499882   0.500005   1.000043   x 
            xxxxxxxxxxxxxxxxxxxxxxxxxxxxxxxxxxxxxxxxxxxxxxxxxxxxxxxxxxxx
 
 
                         No user defined ionic velocities
 
                           -------------------------------
                                   Details of Species
                           -------------------------------
 
                               Mass of species in AMU
                                    O   15.9994000
                                    Zr   91.2240000
                                    Sn  118.7100000
                                    La  138.9055000
 
                          Electric Quadrupole Moment (Barn)
                                    O   -0.0255800 Isotope 17
                                    Zr   -0.1760000 Isotope 91
                                    Sn    1.0000000 No Isotope Defined
                                    La    0.2000000 Isotope139
 
                          Files used for pseudopotentials:
                                    O 2|1.1|15|18|20|20:21(qc=7)
                                    Zr 3|2.1|7|8|9|40U:50:41:42
                                    Sn 3|2.2|7|8|9|50:51:42
                                    La 2|2.3|5|6|7|50U:60:51:52(qc=4.5)
 
                           -------------------------------
                              k-Points For BZ Sampling
                           -------------------------------
                       MP grid size for SCF calculation is  3  3  3
                            with an offset of   0.000  0.000  0.000
                       Number of kpoints used =            14
 
                           -------------------------------
                               Symmetry and Constraints
                           -------------------------------
 
                      Maximum deviation from symmetry =  0.00000         ANG
 
         There are no symmetry operations specified or generated for this cell
                      Number of ionic constraints     =           3
                      Point group of crystal =     1: C1, 1, 1
                      Space group of crystal =     1: P1, P 1
 
 
                         Centre of mass is constrained
             Set iprint > 1 for details of linear ionic constraints
 
                         Number of cell constraints= 0
                         Cell constraints are:  1 2 3 4 5 6
 
                         External pressure/stress (GPa)
                          0.00000   0.00000   0.00000
                                    0.00000   0.00000
                                              0.00000
  
+---------------- MEMORY AND SCRATCH DISK ESTIMATES PER PROCESS --------------+
|                                                     Memory          Disk    |
| Baseline code, static data and system overhead      322.0 MB         0.0 MB |
| BLAS internal memory storage                          0.0 MB         0.0 MB |
| Model and support data                             1319.2 MB         0.0 MB |
| Electronic energy minimisation requirements         381.8 MB         0.0 MB |
| Force calculation requirements                       24.1 MB         0.0 MB |
| Stress calculation requirements                      28.3 MB         0.0 MB |
|                                               ----------------------------- |
| Approx. total storage required per process         2023.0 MB         0.0 MB |
|                                                                             |
| Requirements will fluctuate during execution and may exceed these estimates |
+-----------------------------------------------------------------------------+
Calculating finite basis set correction with  3 cut-off energies.
Calculating total energy with cut-off of  806.342eV.
------------------------------------------------------------------------ <-- SCF
SCF loop      Energy           Fermi           Energy gain       Timer   <-- SCF
                               energy          per atom          (sec)   <-- SCF
------------------------------------------------------------------------ <-- SCF
Initial  -5.62711873E+004  0.00000000E+000                        75.70  <-- SCF
      1  -6.45244271E+004  7.50942463E+000   9.37868155E+001     216.95  <-- SCF
      2  -6.70872669E+004  6.81811239E+000   2.91231796E+001     310.63  <-- SCF
      3  -6.71704257E+004  6.51307297E+000   9.44986882E-001     415.06  <-- SCF
      4  -6.71639999E+004  7.63785313E+000  -7.30203461E-002     547.45  <-- SCF
      5  -6.70611718E+004  7.06164517E+000  -1.16850095E+000     678.57  <-- SCF
      6  -6.70625754E+004  6.95622287E+000   1.59492082E-002     840.78  <-- SCF
      7  -6.70622613E+004  7.03402014E+000  -3.56927764E-003     976.93  <-- SCF
      8  -6.70623417E+004  7.03968180E+000   9.13865817E-004    1157.35  <-- SCF
      9  -6.70623637E+004  7.04231564E+000   2.49784247E-004    1304.95  <-- SCF
     10  -6.70623639E+004  7.04091330E+000   2.00711738E-006    1446.75  <-- SCF
     11  -6.70623635E+004  7.04291995E+000  -3.48325177E-006    1590.65  <-- SCF
     12  -6.70623639E+004  7.04349530E+000   3.67072995E-006    1742.10  <-- SCF
     13  -6.70623639E+004  7.04341525E+000   3.19899697E-007    1878.90  <-- SCF
     14  -6.70623639E+004  7.04340443E+000  -1.57808953E-007    2013.59  <-- SCF
     15  -6.70623639E+004  7.04324984E+000  -5.13684130E-008    2156.35  <-- SCF
     16  -6.70623639E+004  7.04315729E+000  -5.12071252E-009    2282.11  <-- SCF
     17  -6.70623639E+004  7.04310721E+000  -2.22160965E-009    2397.83  <-- SCF
     18  -6.70623639E+004  7.04306327E+000  -3.69963605E-010    2496.60  <-- SCF
     19  -6.70623639E+004  7.04303655E+000   2.55641898E-010    2589.41  <-- SCF
------------------------------------------------------------------------ <-- SCF
 
Final energy, E             =  -67062.36387588     eV
Final free energy (E-TS)    =  -67062.36387588     eV
(energies not corrected for finite basis set)
 
NB est. 0K energy (E-0.5TS)      =  -67062.36387588     eV
 
Calculating total energy with cut-off of  811.342eV.
------------------------------------------------------------------------ <-- SCF
SCF loop      Energy           Fermi           Energy gain       Timer   <-- SCF
                               energy          per atom          (sec)   <-- SCF
------------------------------------------------------------------------ <-- SCF
Initial  -6.70623639E+004  0.00000000E+000                      2625.28  <-- SCF
      1  -6.70623664E+004  7.04303100E+000   2.83336606E-005    2738.47  <-- SCF
      2  -6.70623664E+004  7.04303100E+000   2.03051100E-010    2827.75  <-- SCF
      3  -6.70623664E+004  7.04302525E+000   1.66701579E-008    2916.59  <-- SCF
      4  -6.70623664E+004  7.04303374E+000   5.55718801E-010    3005.38  <-- SCF
      5  -6.70623664E+004  7.04303160E+000  -1.13056153E-010    3092.62  <-- SCF
------------------------------------------------------------------------ <-- SCF
 
Final energy, E             =  -67062.36637076     eV
Final free energy (E-TS)    =  -67062.36637076     eV
(energies not corrected for finite basis set)
 
NB est. 0K energy (E-0.5TS)      =  -67062.36637076     eV
 
Calculating total energy with cut-off of  816.342eV.
------------------------------------------------------------------------ <-- SCF
SCF loop      Energy           Fermi           Energy gain       Timer   <-- SCF
                               energy          per atom          (sec)   <-- SCF
------------------------------------------------------------------------ <-- SCF
Initial  -6.70623664E+004  0.00000000E+000                      3128.34  <-- SCF
      1  -6.70623693E+004  7.04303370E+000   3.32757858E-005    3241.56  <-- SCF
      2  -6.70623693E+004  7.04303370E+000   2.01504312E-010    3331.40  <-- SCF
      3  -6.70623693E+004  7.04302861E+000   2.04886154E-008    3420.77  <-- SCF
      4  -6.70623693E+004  7.04303150E+000   6.54853861E-010    3509.93  <-- SCF
      5  -6.70623693E+004  7.04302890E+000  -6.04653554E-012    3598.34  <-- SCF
------------------------------------------------------------------------ <-- SCF
 
Final energy, E             =  -67062.36930090     eV
Final free energy (E-TS)    =  -67062.36930090     eV
(energies not corrected for finite basis set)
 
NB est. 0K energy (E-0.5TS)      =  -67062.36930090     eV
 
 For future reference: finite basis dEtot/dlog(Ecut) =      -0.439002eV
 Total energy corrected for finite basis set =  -67062.369306 eV
 
  =====================================================================
  +       Calculation of Nuclear Magnetic Resonance Parameters        +
  + ================================================================= +
 
  Starting Calculation of Electric Field Gradient Tensors         |<-- EFG
  +---------------- MEMORY AND SCRATCH DISK ESTIMATES PER PROCESS --------------+
  |                                                     Memory          Disk    |
  | Model and support data                             1316.9 MB         0.0 MB |
  | NMR EFG calculation requirements                    367.5 MB         0.0 MB |
  |                                               ----------------------------- |
  | Approx. total storage required per process         1684.4 MB         0.0 MB |
  |                                                                             |
  | Requirements will fluctuate during execution and may exceed these estimates |
  +-----------------------------------------------------------------------------+
  Total Time for EFG Tensors                     395.71 sec       |<-- EFG
 
  Starting Calculation of Chemical Shielding Tensors              |<-- NMR
  +---------------- MEMORY AND SCRATCH DISK ESTIMATES PER PROCESS --------------+
  |                                                     Memory          Disk    |
  | Model and support data                             1316.9 MB         0.0 MB |
  | NMR chemical shift calculation requirements         564.3 MB         0.0 MB |
  |                                               ----------------------------- |
  | Approx. total storage required per process         1881.2 MB         0.0 MB |
  |                                                                             |
  | Requirements will fluctuate during execution and may exceed these estimates |
  +-----------------------------------------------------------------------------+
  Starting k-point:   1 of   1                                    |<-- NMR
  Total Time for step 1 of 6:                   3340.90 sec       |<-- NMR
  Total Time for step 2 of 6:                   3332.79 sec       |<-- NMR
  Total Time for step 3 of 6:                   3338.18 sec       |<-- NMR
  Total Time for step 4 of 6:                   3342.98 sec       |<-- NMR
  Total Time for step 5 of 6:                   3308.16 sec       |<-- NMR
  Total Time for step 6 of 6:                   3338.69 sec       |<-- NMR
  Total Time for Chemical Shielding Tensors    29269.13 sec       |<-- NMR
 
  ========================================================================
  |           Chemical Shielding and Electric Field Gradient Tensors     |
  |----------------------------------------------------------------------|
  |     Nucleus                Shielding tensor             EFG Tensor   |
  |  Species       Ion    Iso(ppm)   Aniso(ppm)  Asym    Cq(MHz)    Eta  |
  |    O           1     -318.12     -15.70      0.51   3.582E-02   0.45 |
  |    O           2     -316.98     -10.77      0.36  -4.683E-02   0.78 |
  |    O           3     -318.35      -8.67      0.94  -2.779E-02   0.94 |
  |    O           4     -317.41      15.46      0.41  -3.403E-02   0.12 |
  |    O           5     -317.01     -10.80      0.29  -4.672E-02   0.81 |
  |    O           6     -318.37      -8.64      0.87  -2.661E-02   0.91 |
  |    O           7     -318.14     -15.97      0.51   3.672E-02   0.55 |
  |    O           8     -317.42      15.58      0.39  -3.383E-02   0.15 |
  |    O           9       -4.27      69.38      0.52   3.882E+00   0.85 |
  |    O          10     -160.36     144.93      0.84   1.062E+00   0.73 |
  |    O          11       -9.30      58.24      0.65   3.871E+00   0.86 |
  |    O          12      -86.20      87.65      0.31  -3.185E+00   0.10 |
  |    O          13      -87.23      78.57      0.13  -3.269E+00   0.11 |
  |    O          14      -85.59      91.74      0.14  -3.188E+00   0.08 |
  |    O          15      -11.83      59.54      0.66   3.859E+00   0.88 |
  |    O          16      -84.43      84.56      0.12  -3.178E+00   0.07 |
  |    O          17      -85.77      86.47      0.26  -3.076E+00   0.08 |
  |    O          18       -4.59      69.15      0.65   3.840E+00   0.88 |
  |    O          19       -8.54      58.57      0.42   3.948E+00   0.83 |
  |    O          20      -85.61      90.02      0.21  -3.195E+00   0.09 |
  |    O          21      -11.88      59.70      0.66   3.858E+00   0.87 |
  |    O          22      -84.43      85.24      0.12  -3.180E+00   0.07 |
  |    O          23      -87.35      79.54      0.13  -3.268E+00   0.11 |
  |    O          24      -85.16      88.82      0.14  -3.194E+00   0.09 |
  |    O          25      -85.42      88.00      0.21  -3.199E+00   0.10 |
  |    O          26       -8.46      58.64      0.42   3.949E+00   0.83 |
  |    O          27       -4.52      69.12      0.65   3.841E+00   0.88 |
  |    O          28      -85.87      86.91      0.26  -3.075E+00   0.08 |
  |    O          29     -160.42     144.48      0.84   1.058E+00   0.73 |
  |    O          30       -4.42      69.30      0.53   3.881E+00   0.85 |
  |    O          31      -86.28      87.96      0.30  -3.185E+00   0.10 |
  |    O          32       -9.27      58.21      0.65   3.871E+00   0.86 |
  |    O          33      -89.83      80.95      0.21  -3.151E+00   0.08 |
  |    O          34     -163.89     157.56      0.78   1.032E+00   0.88 |
  |    O          35      -89.24      85.48      0.14  -3.174E+00   0.09 |
  |    O          36      -90.95      92.54      0.18  -3.239E+00   0.09 |
  |    O          37      -84.01      87.91      0.29  -3.159E+00   0.10 |
  |    O          38      -85.26      83.82      0.19  -3.170E+00   0.07 |
  |    O          39     -160.76     155.15      0.82   1.068E+00   0.78 |
  |    O          40      -87.53      82.68      0.16  -3.185E+00   0.06 |
  |    O          41      -84.15      88.53      0.29  -3.155E+00   0.10 |
  |    O          42      -85.36      83.78      0.19  -3.169E+00   0.07 |
  |    O          43     -162.74     154.35      0.86   1.051E+00   0.79 |
  |    O          44      -91.33      93.24      0.31  -3.147E+00   0.08 |
  |    O          45      -92.48      93.69      0.22  -3.204E+00   0.10 |
  |    O          46     -165.52     150.27      0.84   1.019E+00   0.82 |
  |    O          47     -163.90     157.95      0.78   1.035E+00   0.88 |
  |    O          48      -89.96      81.69      0.20  -3.148E+00   0.08 |
  |    O          49     -160.89     152.38      0.82   1.055E+00   0.80 |
  |    O          50      -87.60      83.09      0.17  -3.182E+00   0.06 |
  |    O          51     -162.85     154.99      0.85   1.052E+00   0.79 |
  |    O          52      -91.37      93.98      0.31  -3.145E+00   0.08 |
  |    O          53      -92.61      94.43      0.22  -3.202E+00   0.10 |
  |    O          54     -165.35     150.28      0.84   1.017E+00   0.82 |
  |    O          55      -89.18      85.62      0.14  -3.175E+00   0.09 |
  |    O          56      -90.84      92.01      0.18  -3.241E+00   0.10 |
  |    Zr          1     1608.75    -119.07      0.14  -3.589E+01   0.05 |
  |    Zr          2     1621.76    -125.67      0.14  -3.641E+01   0.07 |
  |    Zr          3     1608.41    -119.11      0.13  -3.590E+01   0.03 |
  |    Zr          4     1633.02    -127.19      0.13  -3.865E+01   0.06 |
  |    Zr          5     1627.76    -125.86      0.21  -3.743E+01   0.06 |
  |    Zr          6     1628.72    -126.22      0.17  -3.769E+01   0.12 |
  |    Zr          7     1627.84    -125.98      0.20  -3.746E+01   0.05 |
  |    Zr          8     1629.13    -126.06      0.17  -3.767E+01   0.13 |
  |    Sn          1     3254.55     -59.49      0.40   1.255E+02   0.10 |
  |    Sn          2     3257.86     -62.13      0.10   1.281E+02   0.16 |
  |    Sn          3     3249.14     -47.72      0.53   1.260E+02   0.13 |
  |    Sn          4     3252.09     -59.51      0.33   1.226E+02   0.09 |
  |    Sn          5     3258.14     -61.93      0.09   1.282E+02   0.16 |
  |    Sn          6     3257.12     -53.83      0.12   1.276E+02   0.09 |
  |    Sn          7     3254.54     -59.44      0.39   1.255E+02   0.10 |
  |    Sn          8     3248.88     -47.68      0.53   1.259E+02   0.13 |
  |    La          1     4748.95     867.03      0.04  -8.699E+01   0.04 |
  |    La          2     4652.13     655.64      0.01  -8.185E+01   0.05 |
  |    La          3     4748.93     867.56      0.04  -8.708E+01   0.04 |
  |    La          4     4664.63     644.29      0.00  -8.437E+01   0.01 |
  |    La          5     4602.23     518.75      0.08  -7.710E+01   0.10 |
  |    La          6     4659.20     654.38      0.08  -8.136E+01   0.12 |
  |    La          7     4705.97     766.46      0.04  -8.533E+01   0.09 |
  |    La          8     4605.17     509.30      0.08  -7.593E+01   0.06 |
  |    La          9     4602.27     519.13      0.08  -7.712E+01   0.10 |
  |    La         10     4606.88     548.51      0.07  -7.699E+01   0.18 |
  |    La         11     4644.65     624.37      0.01  -7.727E+01   0.02 |
  |    La         12     4605.28     509.19      0.08  -7.596E+01   0.06 |
  |    La         13     4658.92     653.06      0.08  -8.128E+01   0.12 |
  |    La         14     4658.32     625.62      0.00  -8.129E+01   0.05 |
  |    La         15     4705.86     764.78      0.04  -8.523E+01   0.09 |
  |    La         16     4607.15     549.64      0.07  -7.695E+01   0.19 |
  ========================================================================
 
 *********************** Forces ***********************
 *                                                    *
 *            Cartesian components (eV/A)             *
 * -------------------------------------------------- *
 *                   x            y            z      *
 *                                                    *
 * O         1     -0.00178      0.00046     -0.01446 *
 * O         2     -0.00364      0.00112     -0.00528 *
 * O         3      0.00559     -0.00791      0.00144 *
 * O         4      0.00388     -0.00230     -0.00463 *
 * O         5     -0.00552     -0.00076     -0.00257 *
 * O         6      0.00232      0.00597      0.00615 *
 * O         7     -0.01202     -0.00165     -0.00241 *
 * O         8     -0.00359      0.00091      0.00407 *
 * O         9      0.00164      0.01146     -0.00404 *
 * O        10     -0.00818      0.00065      0.01003 *
 * O        11     -0.00218      0.01159     -0.00548 *
 * O        12      0.00698      0.02406      0.01974 *
 * O        13      0.01526      0.00359      0.01726 *
 * O        14     -0.03160     -0.00424      0.02881 *
 * O        15      0.00216     -0.00615      0.00927 *
 * O        16     -0.01116     -0.00176     -0.01504 *
 * O        17     -0.02709     -0.01169     -0.00452 *
 * O        18     -0.00817      0.00593     -0.00635 *
 * O        19     -0.00963      0.01377     -0.00748 *
 * O        20     -0.03809     -0.01363      0.00097 *
 * O        21      0.00943      0.00502      0.00119 *
 * O        22     -0.01831      0.00353     -0.01385 *
 * O        23      0.02073     -0.00280      0.01715 *
 * O        24      0.02308      0.00727     -0.02267 *
 * O        25      0.00220      0.01081     -0.02880 *
 * O        26     -0.00796     -0.01457     -0.01138 *
 * O        27     -0.00660     -0.00404     -0.00797 *
 * O        28     -0.01005      0.01164     -0.02531 *
 * O        29     -0.00029     -0.00257     -0.00827 *
 * O        30      0.00017     -0.01164     -0.00111 *
 * O        31      0.01959     -0.02253      0.00872 *
 * O        32     -0.00498     -0.01088     -0.00230 *
 * O        33      0.00808     -0.01062      0.01145 *
 * O        34     -0.01098     -0.00217     -0.00591 *
 * O        35      0.01798      0.00051     -0.02656 *
 * O        36      0.00616     -0.01511      0.00816 *
 * O        37     -0.01861      0.00894     -0.00119 *
 * O        38      0.02029      0.01440     -0.00819 *
 * O        39      0.00808     -0.00477      0.01245 *
 * O        40     -0.00961      0.00838     -0.00623 *
 * O        41      0.00149     -0.00969     -0.02437 *
 * O        42     -0.00654     -0.01381      0.01991 *
 * O        43      0.00884     -0.00960      0.00956 *
 * O        44     -0.00716      0.01229     -0.01232 *
 * O        45      0.01278      0.00679      0.01922 *
 * O        46     -0.01524     -0.01278      0.00648 *
 * O        47      0.00071      0.00172     -0.01421 *
 * O        48      0.01290      0.01016      0.00665 *
 * O        49      0.01007      0.01262      0.00657 *
 * O        50     -0.00437     -0.00775     -0.01151 *
 * O        51      0.01056      0.01027      0.00972 *
 * O        52     -0.00911     -0.01198     -0.01101 *
 * O        53      0.02179     -0.00852      0.01118 *
 * O        54      0.00680      0.01359     -0.01067 *
 * O        55     -0.02601     -0.00109      0.01738 *
 * O        56      0.00823      0.01495      0.00500 *
 * Zr        1      0.00646      0.01447     -0.02780 *
 * Zr        2      0.00332     -0.00419      0.02299 *
 * Zr        3     -0.00955     -0.01175      0.00106 *
 * Zr        4     -0.04252     -0.00586     -0.00825 *
 * Zr        5      0.00491      0.01054     -0.02356 *
 * Zr        6      0.00198     -0.01763     -0.01384 *
 * Zr        7     -0.00671     -0.01887     -0.02356 *
 * Zr        8     -0.03469      0.00933      0.00586 *
 * Sn        1      0.01052     -0.01203     -0.00628 *
 * Sn        2      0.00675     -0.01535      0.01570 *
 * Sn        3      0.02300     -0.02143      0.02436 *
 * Sn        4     -0.00435      0.00169     -0.00439 *
 * Sn        5      0.01064      0.00772      0.00864 *
 * Sn        6     -0.00096     -0.00368      0.01287 *
 * Sn        7     -0.00563      0.00992      0.00625 *
 * Sn        8      0.02956      0.01980      0.02186 *
 * La        1     -0.00372     -0.01034      0.00608 *
 * La        2      0.00957     -0.00009      0.00897 *
 * La        3      0.01027      0.02000      0.00310 *
 * La        4     -0.00407      0.00132     -0.00470 *
 * La        5     -0.01157      0.00560      0.00128 *
 * La        6      0.00065      0.00508      0.00498 *
 * La        7      0.02104     -0.00253      0.02259 *
 * La        8     -0.00456      0.01177     -0.00521 *
 * La        9      0.00062     -0.00483     -0.01234 *
 * La       10      0.00181      0.00755      0.00487 *
 * La       11      0.02300      0.00327      0.02655 *
 * La       12      0.00245     -0.00660     -0.00300 *
 * La       13      0.00586     -0.00337     -0.00565 *
 * La       14     -0.02069      0.00018     -0.02195 *
 * La       15      0.02752      0.00689      0.01958 *
 * La       16     -0.00020     -0.00198      0.00051 *
 *                                                    *
 ******************************************************
 
 ***************** Stress Tensor *****************
 *                                               *
 *          Cartesian components (GPa)           *
 * --------------------------------------------- *
 *             x             y             z     *
 *                                               *
 *  x      0.031030      0.030865     -0.001217  *
 *  y      0.030865      0.031502     -0.030786  *
 *  z     -0.001217     -0.030786      0.023780  *
 *                                               *
 *  Pressure:   -0.0288                          *
 *                                               *
 *************************************************
 
 Pseudo atomic calculation performed for O 2s2 2p4
 
 Converged in 39 iterations to a total energy of -432.6554 eV
 
 
 Pseudo atomic calculation performed for Zr 4s2 4p6 4d2 5s2
 
 Converged in 38 iterations to a total energy of -1285.4931 eV
 
 
 Pseudo atomic calculation performed for Sn 4d10 5s2 5p2
 
 Converged in 48 iterations to a total energy of -2044.5414 eV
 
 
 Pseudo atomic calculation performed for La 5s2 5p6 5d1 6s2
 
 Converged in 34 iterations to a total energy of -968.0372 eV
 
Charge spilling parameter for spin component 1 = 0.24%
 
     Atomic Populations (Mulliken)
     -----------------------------
Species   Ion     s      p      d      f     Total  Charge (e)
==============================================================
  O        1     1.87   5.00   0.00   0.00   6.87    -0.87
  O        2     1.87   5.00   0.00   0.00   6.87    -0.87
  O        3     1.87   5.00   0.00   0.00   6.87    -0.87
  O        4     1.87   5.00   0.00   0.00   6.87    -0.87
  O        5     1.87   5.00   0.00   0.00   6.87    -0.87
  O        6     1.87   5.00   0.00   0.00   6.87    -0.87
  O        7     1.87   5.00   0.00   0.00   6.87    -0.87
  O        8     1.87   5.00   0.00   0.00   6.87    -0.87
  O        9     1.88   5.02   0.00   0.00   6.91    -0.91
  O       10     1.86   4.95   0.00   0.00   6.80    -0.80
  O       11     1.88   5.02   0.00   0.00   6.91    -0.91
  O       12     1.87   4.99   0.00   0.00   6.86    -0.86
  O       13     1.87   4.99   0.00   0.00   6.86    -0.86
  O       14     1.87   4.99   0.00   0.00   6.86    -0.86
  O       15     1.88   5.02   0.00   0.00   6.91    -0.91
  O       16     1.87   4.99   0.00   0.00   6.86    -0.86
  O       17     1.87   4.99   0.00   0.00   6.85    -0.85
  O       18     1.88   5.02   0.00   0.00   6.91    -0.91
  O       19     1.88   5.03   0.00   0.00   6.91    -0.91
  O       20     1.87   4.99   0.00   0.00   6.86    -0.86
  O       21     1.88   5.02   0.00   0.00   6.91    -0.91
  O       22     1.87   4.99   0.00   0.00   6.86    -0.86
  O       23     1.87   4.99   0.00   0.00   6.86    -0.86
  O       24     1.87   4.99   0.00   0.00   6.86    -0.86
  O       25     1.87   4.99   0.00   0.00   6.86    -0.86
  O       26     1.88   5.03   0.00   0.00   6.91    -0.91
  O       27     1.88   5.02   0.00   0.00   6.91    -0.91
  O       28     1.87   4.99   0.00   0.00   6.85    -0.85
  O       29     1.86   4.95   0.00   0.00   6.80    -0.80
  O       30     1.88   5.02   0.00   0.00   6.91    -0.91
  O       31     1.87   4.99   0.00   0.00   6.86    -0.86
  O       32     1.88   5.02   0.00   0.00   6.91    -0.91
  O       33     1.87   4.99   0.00   0.00   6.86    -0.86
  O       34     1.86   4.95   0.00   0.00   6.80    -0.80
  O       35     1.87   4.99   0.00   0.00   6.86    -0.86
  O       36     1.87   4.99   0.00   0.00   6.86    -0.86
  O       37     1.87   4.99   0.00   0.00   6.86    -0.86
  O       38     1.87   4.99   0.00   0.00   6.86    -0.86
  O       39     1.86   4.95   0.00   0.00   6.80    -0.80
  O       40     1.87   4.99   0.00   0.00   6.86    -0.86
  O       41     1.87   4.99   0.00   0.00   6.86    -0.86
  O       42     1.87   4.99   0.00   0.00   6.86    -0.86
  O       43     1.86   4.95   0.00   0.00   6.80    -0.80
  O       44     1.87   4.99   0.00   0.00   6.86    -0.86
  O       45     1.87   4.99   0.00   0.00   6.86    -0.86
  O       46     1.86   4.95   0.00   0.00   6.80    -0.80
  O       47     1.86   4.95   0.00   0.00   6.80    -0.80
  O       48     1.87   4.99   0.00   0.00   6.86    -0.86
  O       49     1.86   4.95   0.00   0.00   6.80    -0.80
  O       50     1.87   4.99   0.00   0.00   6.86    -0.86
  O       51     1.86   4.95   0.00   0.00   6.80    -0.80
  O       52     1.87   4.99   0.00   0.00   6.86    -0.86
  O       53     1.87   4.99   0.00   0.00   6.86    -0.86
  O       54     1.86   4.95   0.00   0.00   6.80    -0.80
  O       55     1.87   4.99   0.00   0.00   6.86    -0.86
  O       56     1.87   4.99   0.00   0.00   6.86    -0.86
  Zr       1     2.37   6.50   1.92   0.00  10.79     1.21
  Zr       2     2.37   6.49   1.92   0.00  10.78     1.22
  Zr       3     2.37   6.50   1.92   0.00  10.79     1.21
  Zr       4     2.37   6.47   1.93   0.00  10.77     1.23
  Zr       5     2.37   6.48   1.92   0.00  10.77     1.23
  Zr       6     2.37   6.48   1.92   0.00  10.78     1.22
  Zr       7     2.37   6.48   1.92   0.00  10.77     1.23
  Zr       8     2.37   6.48   1.92   0.00  10.77     1.23
  Sn       1     1.05   1.31  10.00   0.00  12.36     1.64
  Sn       2     1.05   1.31  10.00   0.00  12.36     1.64
  Sn       3     1.05   1.31  10.00   0.00  12.36     1.64
  Sn       4     1.05   1.31  10.00   0.00  12.36     1.64
  Sn       5     1.05   1.31  10.00   0.00  12.36     1.64
  Sn       6     1.05   1.31  10.00   0.00  12.36     1.64
  Sn       7     1.05   1.31  10.00   0.00  12.36     1.64
  Sn       8     1.05   1.31  10.00   0.00  12.36     1.64
  La       1     2.03   6.15   1.20   0.00   9.37     1.63
  La       2     2.07   6.17   1.19   0.00   9.43     1.57
  La       3     2.03   6.15   1.20   0.00   9.37     1.63
  La       4     2.05   6.18   1.19   0.00   9.42     1.58
  La       5     2.09   6.19   1.19   0.00   9.47     1.53
  La       6     2.07   6.17   1.19   0.00   9.43     1.57
  La       7     2.02   6.16   1.19   0.00   9.38     1.62
  La       8     2.08   6.19   1.19   0.00   9.46     1.54
  La       9     2.09   6.19   1.19   0.00   9.47     1.53
  La      10     2.07   6.19   1.19   0.00   9.45     1.55
  La      11     2.07   6.17   1.19   0.00   9.43     1.57
  La      12     2.08   6.19   1.19   0.00   9.46     1.54
  La      13     2.07   6.17   1.19   0.00   9.43     1.57
  La      14     2.06   6.18   1.19   0.00   9.43     1.57
  La      15     2.02   6.16   1.19   0.00   9.38     1.62
  La      16     2.07   6.19   1.19   0.00   9.45     1.55
==============================================================
 
            Bond              Population      Length (A)
============================================================
         O 13 -- Sn 5              0.35        2.10169
         O 23 -- Sn 2              0.35        2.10178
         O 56 -- Sn 3              0.35        2.10192
         O 36 -- Sn 8              0.35        2.10193
         O 24 -- Sn 6              0.35        2.10333
         O 14 -- Sn 6              0.35        2.10359
         O 20 -- Sn 2              0.35        2.10398
         O 25 -- Sn 5              0.35        2.10402
         O 26 -- Sn 8              0.34        2.10489
         O 19 -- Sn 3              0.34        2.10498
         O 45 -- Sn 7              0.34        2.10574
         O 53 -- Sn 1              0.34        2.10581
         O 12 -- Sn 1              0.34        2.10585
         O 31 -- Sn 7              0.34        2.10590
         O 38 -- Sn 2              0.35        2.10590
         O 42 -- Sn 5              0.35        2.10606
         O 26 -- Sn 1              0.34        2.10679
         O 19 -- Sn 7              0.34        2.10688
         O 41 -- Sn 8              0.34        2.10730
         O 37 -- Sn 3              0.34        2.10733
         O 40 -- Sn 2              0.35        2.10754
         O 50 -- Sn 5              0.35        2.10763
         O 33 -- Sn 4              0.34        2.10776
         O 48 -- Sn 4              0.34        2.10780
         O 52 -- Sn 6              0.34        2.10999
         O 44 -- Sn 6              0.34        2.11000
         O 22 -- Sn 3              0.35        2.11046
         O 16 -- Sn 8              0.35        2.11055
         O 32 -- Sn 8              0.34        2.11108
         O 11 -- Sn 3              0.34        2.11110
         O 32 -- Sn 4              0.34        2.11118
         O 55 -- Sn 1              0.34        2.11124
         O 35 -- Sn 7              0.34        2.11126
         O 11 -- Sn 4              0.34        2.11128
         O 9  -- Sn 6              0.34        2.11173
         O 30 -- Sn 6              0.34        2.11182
         O 47 -- Zr 6              0.43        2.11326
         O 34 -- Zr 8              0.43        2.11347
         O 17 -- Sn 8              0.34        2.11370
         O 28 -- Sn 3              0.34        2.11373
         O 15 -- Sn 7              0.34        2.11396
         O 21 -- Sn 1              0.34        2.11404
         O 14 -- Zr 5              0.45        2.11462
         O 15 -- Sn 4              0.33        2.11470
         O 21 -- Sn 4              0.33        2.11471
         O 39 -- Zr 7              0.42        2.11493
         O 43 -- Zr 2              0.42        2.11509
         O 51 -- Zr 2              0.42        2.11523
         O 27 -- Sn 7              0.34        2.11536
         O 18 -- Sn 1              0.34        2.11538
         O 39 -- Zr 4              0.42        2.11539
         O 51 -- Zr 6              0.41        2.11545
         O 46 -- Zr 3              0.42        2.11559
         O 9  -- Sn 2              0.33        2.11560
         O 30 -- Sn 5              0.33        2.11572
         O 54 -- Zr 1              0.42        2.11641
         O 43 -- Zr 8              0.41        2.11661
         O 53 -- Zr 3              0.44        2.11686
         O 20 -- Zr 5              0.44        2.11711
         O 36 -- Zr 3              0.44        2.11729
         O 45 -- Zr 1              0.44        2.11770
         O 56 -- Zr 1              0.44        2.11774
         O 24 -- Zr 7              0.44        2.11788
         O 49 -- Zr 4              0.42        2.11788
         O 49 -- Zr 5              0.42        2.11837
         O 27 -- Sn 2              0.32        2.11877
         O 18 -- Sn 5              0.32        2.11884
         O 47 -- Zr 4              0.42        2.11915
         O 25 -- Zr 7              0.44        2.11947
         O 10 -- Zr 7              0.42        2.11948
         O 29 -- Zr 8              0.42        2.11951
         O 34 -- Zr 4              0.42        2.11969
         O 23 -- Zr 6              0.45        2.11973
         O 41 -- Zr 4              0.45        2.12009
         O 12 -- Zr 8              0.44        2.12027
         O 31 -- Zr 6              0.44        2.12040
         O 52 -- Zr 1              0.45        2.12047
         O 10 -- Zr 6              0.42        2.12058
         O 37 -- Zr 4              0.45        2.12080
         O 13 -- Zr 8              0.45        2.12080
         O 28 -- Zr 5              0.45        2.12115
         O 54 -- Zr 7              0.42        2.12138
         O 44 -- Zr 3              0.45        2.12142
         O 29 -- Zr 5              0.42        2.12183
         O 17 -- Zr 7              0.45        2.12201
         O 35 -- Zr 2              0.45        2.12206
         O 55 -- Zr 2              0.45        2.12211
         O 42 -- Zr 2              0.44        2.12222
         O 38 -- Zr 2              0.44        2.12227
         O 46 -- Zr 5              0.42        2.12242
         O 50 -- Zr 1              0.45        2.12443
         O 48 -- Zr 1              0.44        2.12455
         O 40 -- Zr 3              0.45        2.12489
         O 33 -- Zr 3              0.44        2.12539
         O 22 -- Zr 8              0.45        2.12587
         O 16 -- Zr 6              0.45        2.12684
         O 3  -- La 3              0.18        2.35694
         O 1  -- La 15             0.19        2.35712
         O 7  -- La 7              0.19        2.35712
         O 6  -- La 1              0.18        2.35715
         O 2  -- La 7              0.18        2.35780
         O 5  -- La 15             0.18        2.35791
         O 7  -- La 3              0.19        2.35802
         O 1  -- La 1              0.19        2.35813
         O 8  -- La 4              0.18        2.35858
         O 4  -- La 4              0.18        2.35864
         O 2  -- La 2              0.17        2.35881
         O 5  -- La 2              0.17        2.35885
         O 6  -- La 14             0.18        2.35964
         O 3  -- La 14             0.18        2.35967
         O 4  -- La 6              0.17        2.35992
         O 8  -- La 13             0.17        2.35999
         O 5  -- La 6              0.18        2.36083
         O 2  -- La 13             0.18        2.36098
         O 6  -- La 9              0.17        2.36105
         O 3  -- La 5              0.17        2.36111
         O 1  -- La 10             0.18        2.36122
         O 7  -- La 16             0.18        2.36137
         O 1  -- La 11             0.16        2.36200
         O 7  -- La 11             0.16        2.36213
         O 8  -- La 10             0.16        2.36217
         O 4  -- La 16             0.16        2.36224
         O 6  -- La 12             0.17        2.36243
         O 3  -- La 8              0.17        2.36259
         O 8  -- La 5              0.16        2.36278
         O 2  -- La 12             0.16        2.36279
         O 5  -- La 8              0.16        2.36282
         O 4  -- La 9              0.16        2.36283
         O 49 -- La 12             0.14        2.65392
         O 39 -- La 8              0.13        2.65405
         O 47 -- La 11             0.11        2.65852
         O 34 -- La 11             0.11        2.65860
         O 51 -- La 14             0.13        2.65988
         O 43 -- La 14             0.13        2.65996
         O 54 -- La 7              0.13        2.66097
         O 46 -- La 15             0.13        2.66099
         O 29 -- La 6              0.14        2.66449
         O 10 -- La 13             0.14        2.66458
         O 46 -- La 1              0.13        2.66565
         O 53 -- La 9              0.18        2.66570
         O 54 -- La 3              0.13        2.66582
         O 45 -- La 5              0.18        2.66582
         O 40 -- La 9              0.18        2.66672
         O 50 -- La 5              0.18        2.66677
         O 36 -- La 2              0.18        2.66824
         O 56 -- La 2              0.18        2.66831
         O 43 -- La 3              0.13        2.66859
         O 51 -- La 1              0.13        2.66870
         O 35 -- La 16             0.18        2.66899
         O 55 -- La 10             0.18        2.66911
         O 10 -- La 7              0.13        2.66927
         O 29 -- La 15             0.13        2.66939
         O 13 -- La 11             0.16        2.66964
         O 23 -- La 11             0.16        2.66978
         O 11 -- La 8              0.23        2.67003
         O 42 -- La 16             0.17        2.67005
         O 32 -- La 12             0.23        2.67011
         O 38 -- La 10             0.17        2.67015
         O 24 -- La 10             0.18        2.67022
         O 14 -- La 16             0.18        2.67028
         O 25 -- La 8              0.17        2.67069
         O 20 -- La 12             0.17        2.67072
         O 18 -- La 8              0.25        2.67159
         O 21 -- La 8              0.24        2.67166
         O 27 -- La 12             0.25        2.67182
         O 15 -- La 12             0.24        2.67183
         O 30 -- La 11             0.23        2.67341
         O 9  -- La 11             0.23        2.67357
         O 30 -- La 16             0.24        2.67370
         O 21 -- La 6              0.24        2.67375
         O 9  -- La 10             0.24        2.67381
         O 15 -- La 13             0.24        2.67389
         O 33 -- La 13             0.18        2.67407
         O 48 -- La 6              0.18        2.67412
         O 19 -- La 9              0.24        2.67438
         O 18 -- La 5              0.24        2.67441
         O 28 -- La 16             0.18        2.67445
         O 17 -- La 10             0.18        2.67446
         O 26 -- La 5              0.24        2.67447
         O 27 -- La 9              0.24        2.67454
         O 34 -- La 3              0.14        2.67510
         O 47 -- La 1              0.14        2.67511
         O 44 -- La 2              0.18        2.67627
         O 52 -- La 2              0.18        2.67638
         O 22 -- La 9              0.19        2.67642
         O 16 -- La 5              0.19        2.67643
         O 56 -- La 7              0.17        2.67724
         O 36 -- La 15             0.17        2.67738
         O 31 -- La 5              0.17        2.67818
         O 12 -- La 9              0.17        2.67823
         O 33 -- La 4              0.19        2.67844
         O 48 -- La 4              0.19        2.67851
         O 19 -- La 16             0.22        2.67922
         O 26 -- La 10             0.22        2.67933
         O 44 -- La 13             0.19        2.68045
         O 11 -- La 14             0.23        2.68053
         O 52 -- La 6              0.19        2.68053
         O 32 -- La 14             0.23        2.68062
         O 39 -- La 3              0.12        2.68070
         O 49 -- La 1              0.12        2.68071
         O 41 -- La 12             0.18        2.68109
         O 37 -- La 8              0.18        2.68112
         O 12 -- La 6              0.19        2.68150
         O 31 -- La 13             0.19        2.68160
         O 22 -- La 14             0.18        2.68366
         O 16 -- La 14             0.19        2.68369
         O 13 -- La 15             0.18        2.68405
         O 23 -- La 7              0.18        2.68416
         O 53 -- La 1              0.18        2.68420
         O 45 -- La 3              0.18        2.68423
         O 50 -- La 4              0.20        2.68531
         O 40 -- La 4              0.20        2.68534
         O 41 -- La 2              0.18        2.68686
         O 37 -- La 2              0.18        2.68686
         O 25 -- La 15             0.18        2.68712
         O 20 -- La 7              0.18        2.68715
         O 42 -- La 4              0.19        2.68853
         O 38 -- La 4              0.19        2.68858
         O 35 -- La 3              0.18        2.68867
         O 55 -- La 1              0.18        2.68891
         O 24 -- La 13             0.17        2.68999
         O 14 -- La 6              0.17        2.69000
         O 28 -- La 7              0.18        2.69464
         O 17 -- La 15             0.18        2.69474
         O 12 -- O 53             -0.06        2.79489
         O 31 -- O 45             -0.06        2.79498
         O 9  -- O 23             -0.06        2.79652
         O 13 -- O 30             -0.06        2.79661
         O 36 -- O 41             -0.06        2.79692
         O 37 -- O 56             -0.06        2.79707
         O 11 -- O 21             -0.05        2.79710
         O 15 -- O 32             -0.05        2.79717
         O 26 -- O 55             -0.06        2.79734
         O 19 -- O 35             -0.06        2.79740
         O 44 -- O 52             -0.06        2.79866
         O 19 -- O 22             -0.06        2.79885
         O 16 -- O 26             -0.06        2.79894
         O 14 -- O 30             -0.06        2.80069
         O 9  -- O 24             -0.06        2.80093
         O 18 -- O 26             -0.05        2.80120
         O 19 -- O 27             -0.05        2.80124
         O 11 -- O 32             -0.05        2.80129
         O 27 -- O 40             -0.06        2.80205
         O 18 -- O 50             -0.06        2.80210
         O 30 -- O 42             -0.06        2.80251
         O 9  -- O 38             -0.06        2.80253
         O 20 -- O 23             -0.06        2.80340
         O 15 -- O 27             -0.05        2.80353
         O 13 -- O 25             -0.06        2.80356
         O 18 -- O 21             -0.05        2.80362
         O 19 -- O 28             -0.06        2.80372
         O 17 -- O 26             -0.06        2.80380
         O 34 -- O 47             -0.04        2.80393
         O 15 -- O 33             -0.06        2.80397
         O 21 -- O 48             -0.06        2.80399
         O 9  -- O 30             -0.05        2.80403
         O 20 -- O 27             -0.06        2.80491
         O 18 -- O 25             -0.06        2.80501
         O 11 -- O 37             -0.06        2.80573
         O 32 -- O 41             -0.06        2.80575
         O 33 -- O 48             -0.06        2.80580
         O 14 -- O 52             -0.06        2.80693
         O 24 -- O 44             -0.06        2.80727
         O 35 -- O 45             -0.06        2.80732
         O 53 -- O 55             -0.06        2.80740
         O 28 -- O 56             -0.06        2.80794
         O 17 -- O 36             -0.06        2.80805
         O 12 -- O 21             -0.05        2.80842
         O 15 -- O 31             -0.05        2.80852
         O 43 -- O 51             -0.03        2.80913
         O 42 -- O 50             -0.06        2.80918
         O 38 -- O 40             -0.06        2.80928
         O 11 -- O 22             -0.05        2.81075
         O 16 -- O 32             -0.05        2.81095
         O 23 -- O 47             -0.03        2.81181
         O 13 -- O 34             -0.03        2.81189
         O 25 -- O 39             -0.03        2.81374
         O 20 -- O 49             -0.03        2.81400
         O 47 -- O 51             -0.03        2.81411
         O 34 -- O 43             -0.03        2.81417
         O 29 -- O 46             -0.03        2.81457
         O 10 -- O 54             -0.03        2.81463
         O 36 -- O 46             -0.03        2.81736
         O 54 -- O 56             -0.03        2.81746
         O 41 -- O 49             -0.03        2.81858
         O 37 -- O 39             -0.03        2.81858
         O 39 -- O 54             -0.03        2.81894
         O 46 -- O 49             -0.03        2.81900
         O 10 -- O 31             -0.03        2.81958
         O 12 -- O 29             -0.03        2.81967
         O 45 -- O 54             -0.03        2.82020
         O 46 -- O 53             -0.03        2.82025
         O 35 -- O 42             -0.03        2.82062
         O 38 -- O 55             -0.03        2.82064
         O 45 -- O 50             -0.03        2.82151
         O 40 -- O 53             -0.03        2.82156
         O 17 -- O 24             -0.03        2.82252
         O 34 -- O 39             -0.03        2.82264
         O 14 -- O 28             -0.03        2.82264
         O 52 -- O 56             -0.03        2.82267
         O 36 -- O 44             -0.03        2.82268
         O 47 -- O 49             -0.03        2.82292
         O 48 -- O 52             -0.03        2.82590
         O 33 -- O 44             -0.03        2.82594
         O 10 -- O 23             -0.03        2.82620
         O 13 -- O 29             -0.03        2.82648
         O 16 -- O 51             -0.03        2.82706
         O 22 -- O 43             -0.03        2.82725
         O 10 -- O 24             -0.03        2.82790
         O 14 -- O 29             -0.03        2.82797
         O 51 -- O 55             -0.03        2.82883
         O 35 -- O 43             -0.03        2.82891
         O 16 -- O 31             -0.03        2.83447
         O 12 -- O 22             -0.03        2.83452
         O 33 -- O 40             -0.03        2.83806
         O 48 -- O 50             -0.03        2.83812
         O 37 -- O 41             -0.03        2.83875
         O 38 -- O 42             -0.03        2.83911
         O 17 -- O 25             -0.03        2.83960
         O 20 -- O 28             -0.03        2.83973
============================================================
 

Writing analysis data to 010.castep_bin

Writing model to 010.check
 
 A BibTeX formatted list of references used in this run has been written to 
 010.bib
 
Initialisation time =     54.12 s
Calculation time    =  33684.70 s
Finalisation time   =     70.94 s
Total time          =  33809.76 s
Peak Memory Use     = 2839972 kB
  
Overall parallel efficiency rating: Good (79%)                                  
  
Data was distributed by:-
G-vector (4-way); efficiency rating: Good (79%)                                 
k-point (14-way); efficiency rating: Excellent (99%)                            
