 +-------------------------------------------------+
 |                                                 |
 |      CCC   AA    SSS  TTTTT  EEEEE  PPPP        |
 |     C     A  A  S       T    E      P   P       |
 |     C     AAAA   SS     T    EEE    PPPP        |
 |     C     A  A     S    T    E      P           |
 |      CCC  A  A  SSS     T    EEEEE  P           |
 |                                                 |
 +-------------------------------------------------+
 |                                                 |
 | Welcome to Academic Release CASTEP version 16.11|          
 | Ab Initio Total Energy Program                  |
 |                                                 |
 | Authors:                                        |
 | M. Segall, M. Probert, C. Pickard, P. Hasnip,   |
 | S. Clark, K. Refson, J. R. Yates, M. Payne      |
 |                                                 |
 | Contributors:                                   |
 | P. Lindan, P. Haynes, J. White, V. Milman,      |
 | N. Govind, M. Gibson, P. Tulip, V. Cocula,      |
 | B. Montanari, D. Quigley, M. Glover,            |
 | L. Bernasconi, A. Perlov, M. Plummer,           |
 | E. McNellis, J. Meyer, J. Gale, D. Jochym       |
 | J. Aarons, B. Walker, R. Gillen, D. Jones       |
 | T. Green, I. J. Bush, C. J. Armstrong,          |
 | E. J. Higgins, E. L. Brown, M. S. McFly         |
 |                                                 |
 | Copyright (c) 2000 - 2015                       |
 |                                                 |
 |     Distributed under the terms of an           |
 |     Agreement between the United Kingdom        |
 |     Car-Parrinello (UKCP) Consortium,           |
 |     Daresbury Laboratory and Accelrys, Inc.     |
 |                                                 |
 | Please cite                                     |
 |                                                 |
 |     "First principles methods using CASTEP"     |
 |                                                 |
 |         Zeitschrift fuer Kristallographie       |
 |           220(5-6) pp. 567-570 (2005)           |
 |                                                 |
 | S. J. Clark, M. D. Segall, C. J. Pickard,       |
 | P. J. Hasnip, M. J. Probert, K. Refson,         |
 | M. C. Payne                                     |
 |                                                 |
 |       in all publications arising from          |
 |              your use of CASTEP                 |
 |                                                 |
 +-------------------------------------------------+
 
 
 Compiled for linux_x86_64_ifort16 on Sat, 23 Jul 2016 23:44:54 +0100
 from code version 
 203e84763863+ Castep161_branch Fri, 04 Mar 2016 19:21:07 +0000
 Compiler: Intel Fortran 16.0.3.210; Optimisation: fast
 MATHLIBS: Intel MKL(11.3.3) (LAPACK version 3.6.0)
 FFT Lib : mkl
 Fundamental constants values: CODATA 2010
 
 Run started: Wed, 18 Apr 2018 16:03:58 +0100
 +-------------------------------------------------+
 |                                                 |
 |           N   N    M   M    RRRR                |
 |           NN  N    MM MM    R   R               |
 |           N N N    M M M    RRRR                |
 |           N  NN    M   M    R  R                |
 |           N   N    M   M    R   R               |
 |                                                 |
 +-------------------------------------------------+
 |                                                 |
 | Welcome to Materials Studio CASTEP-NMR          |
 |                                                 |
 | Authors:                                        |
 | J.R. Yates, C.J. Pickard, F. Mauri              |
 |                                                 |
 | Contributors:                                   |
 | T.F.G. Green, S.A. Joyce                        |
 |                                                 |
 | Copyright (c) 2004 - 2015                       |
 |                                                 |
 | Please cite the appropriate publications in all |
 | work arising from your use of CASTEP NMR.       |
 |                                                 |
 | For NMR Shielding Tensors cite:                 |
 |    "All-electron magnetic response with         |
 |    pseudopotentials: NMR chemical shifts",      |
 |    C. J. Pickard, F. Mauri;                     |
 |    Physical Review B63 245101 (2001), and       |
 |                                                 |
 |    "Calculation of NMR Chemical Shifts          |
 |    for extended systems using                   |
 |    Ultrasoft Pseudopotentials",                 |
 |    J. R. Yates, C. J. Pickard and F. Mauri      |
 |    Physical Review B76 024401 (2007)            |
 |                                                 |
 | For Electric Field Gradients cite:              |
 |   "Accurate First Principles Prediction of 17O  |
 |    NMR Parameters in SiO2: Assignment of the    |
 |    Zeolite Ferrierite Spectrum"                 |
 |    M. Profeta, F. Mauri and C. J. Pickard       |
 |    J. Amer. Chem. Soc. 125 541 (2003)           |
 |                                                 |
 | For Spin-Spin (J) Couplings cite:               |
 |   "A first principles theory of NMR J-coupling  |
 |   in solid-state systems"                       |
 |   S.A. Joyce, J.R. Yates, C.J. Pickard, F. Mauri|
 |   J. Chem. Phys. 127 204107 (2007)              |
 |                                                 |
 |   "Relativistic NMR J-coupling with ultrasoft   |
 |   pseudopotentials and the zeroth-order regular |
 |   approximation"                                |
 |   T.F.G. Green and J.R. Yates                   |
 |   J. Chem. Phys. 140 234106 (2014)              |
 |                                                 |
 +-------------------------------------------------+
 
 
 Atomic calculation performed for O: 1s2 2s2 2p4
 
 Converged in 44 iterations to an ae energy of -2040.855 eV
 
 
 Atomic calculation performed for O: 1s2 2s2 2p4
 
 Exceeded max iterations: converged to 0.000000062 eV
 
   ============================================================                
   | Pseudopotential Report - Date of generation 18-04-2018   |                
   ------------------------------------------------------------                
   | Element: O Ionic charge:  6.00 Level of theory: PBE      |                
   | Atomic Solver: ZORA (scalar)                             |                
   |                                                          |                
   |               Reference Electronic Structure             |                
   |         Orbital         Occupation         Energy        |                
   |            2s              2.000           -0.881        |                
   |            2p              4.000           -0.332        |                
   |                                                          |                
   |                 Pseudopotential Definition               |                
   |        Beta     l      e      Rc     scheme   norm       |                
   |          1      0   -0.881   1.100     qc      0         |                
   |          2      0    0.250   1.100     qc      0         |                
   |          3      1   -0.332   1.100     qc      0         |                
   |          4      1    0.250   1.100     qc      0         |                
   |         loc     2    0.000   1.100     pn      0         |                
   |                                                          |                
   | Augmentation charge Rinner = 0.769                       |                
   | Partial core correction Rc = 0.769                       |                
   ------------------------------------------------------------                
   | "2|1.1|15|18|20|20:21(qc=7)"                             |                
   ------------------------------------------------------------                
   |      Author: Chris J. Pickard, Cambridge University      |                
   ============================================================                
 
 Atomic calculation performed for Zr: 1s2 2s2 2p6 3s2 3p6 3d10 4s2 4p6 4d2 5s2
 
 Converged in 53 iterations to an ae energy of -97719.888 eV
 
 
 Atomic calculation performed for Zr: 1s2 2s2 2p6 3s2 3p6 3d10 4s2 4p6 4d2 5s2
 
 Exceeded max iterations: converged to 0.000000970 eV
 
 Warning: ion_atom_descreen_psp: negative charge density encountered
   ============================================================                
   | Pseudopotential Report - Date of generation 18-04-2018   |                
   ------------------------------------------------------------                
   | Element: Zr Ionic charge: 12.00 Level of theory: PBE     |                
   | Atomic Solver: ZORA (scalar)                             |                
   |                                                          |                
   |               Reference Electronic Structure             |                
   |         Orbital         Occupation         Energy        |                
   |            4s              2.000           -2.003        |                
   |            4p              6.000           -1.193        |                
   |            5s              2.000           -0.163        |                
   |            4d              2.000           -0.132        |                
   |                                                          |                
   |                 Pseudopotential Definition               |                
   |        Beta     l      e      Rc     scheme   norm       |                
   |          1      0   -2.003   2.105     qc      0         |                
   |          2      0   -0.163   2.105     qc      0         |                
   |          3      0    0.250   2.105     qc      0         |                
   |          4      1   -1.193   2.105     qc      0         |                
   |          5      1    0.250   2.105     qc      0         |                
   |          6      2   -0.132   2.105     qc      0         |                
   |          7      2    0.250   2.105     qc      0         |                
   |         loc     3    0.000   2.105     pn      0         |                
   |                                                          |                
   | Augmentation charge Rinner = 1.471                       |                
   | Partial core correction Rc = 1.471                       |                
   ------------------------------------------------------------                
   | "3|2.1|7|8|9|40U:50:41:42"                               |                
   ------------------------------------------------------------                
   |      Author: Chris J. Pickard, Cambridge University      |                
   ============================================================                
 
 Atomic calculation performed for Sn:
 1s2 2s2 2p6 3s2 3p6 3d10 4s2 4p6 4d10 5s2 5p2
 
 Converged in 58 iterations to an ae energy of -167539.320 eV
 
 
 Atomic calculation performed for Sn:
 1s2 2s2 2p6 3s2 3p6 3d10 4s2 4p6 4d10 5s2 5p2
 
 Exceeded max iterations: converged to 0.000001154 eV
 
   ============================================================                
   | Pseudopotential Report - Date of generation 18-04-2018   |                
   ------------------------------------------------------------                
   | Element: Sn Ionic charge: 14.00 Level of theory: PBE     |                
   | Atomic Solver: ZORA (scalar)                             |                
   |                                                          |                
   |               Reference Electronic Structure             |                
   |         Orbital         Occupation         Energy        |                
   |            4d             10.000           -0.950        |                
   |            5s              2.000           -0.388        |                
   |            5p              2.000           -0.136        |                
   |                                                          |                
   |                 Pseudopotential Definition               |                
   |        Beta     l      e      Rc     scheme   norm       |                
   |          1      0   -0.388   2.199     qc      0         |                
   |          2      0    0.250   2.199     qc      0         |                
   |          3      1   -0.136   2.199     qc      0         |                
   |          4      1    0.250   2.199     qc      0         |                
   |          5      2   -0.950   2.199     qc      0         |                
   |          6      2    0.250   2.199     qc      0         |                
   |         loc     3    0.000   2.199     pn      0         |                
   |                                                          |                
   | Augmentation charge Rinner = 1.537                       |                
   | Partial core correction Rc = 1.537                       |                
   ------------------------------------------------------------                
   | "3|2.2|7|8|9|50:51:42"                                   |                
   ------------------------------------------------------------                
   |      Author: Chris J. Pickard, Cambridge University      |                
   ============================================================                
 
 Atomic calculation performed for La:
 1s2 2s2 2p6 3s2 3p6 3d10 4s2 4p6 4d10 5s2 5p6 5d1 6s2
 
 Converged in 56 iterations to an ae energy of -230121.495 eV
 
 
 Atomic calculation performed for La:
 1s2 2s2 2p6 3s2 3p6 3d10 4s2 4p6 4d10 5s2 5p6 5d1 6s2
 
 Exceeded max iterations: converged to 0.000000907 eV
 
 Warning: ion_atom_descreen_psp: negative charge density encountered
   ============================================================                
   | Pseudopotential Report - Date of generation 18-04-2018   |                
   ------------------------------------------------------------                
   | Element: La Ionic charge: 11.00 Level of theory: PBE     |                
   | Atomic Solver: ZORA (scalar)                             |                
   |                                                          |                
   |               Reference Electronic Structure             |                
   |         Orbital         Occupation         Energy        |                
   |            5s              2.000           -1.430        |                
   |            5p              6.000           -0.823        |                
   |            6s              2.000           -0.135        |                
   |            5d              1.000           -0.114        |                
   |                                                          |                
   |                 Pseudopotential Definition               |                
   |        Beta     l      e      Rc     scheme   norm       |                
   |          1      0   -1.430   2.298     qc      0         |                
   |          2      0   -0.135   2.298     qc      0         |                
   |          3      0    0.250   2.298     qc      0         |                
   |          4      1   -0.823   2.298     qc      0         |                
   |          5      1    0.250   2.298     qc      0         |                
   |          6      2   -0.114   2.298     qc      0         |                
   |          7      2    0.250   2.298     qc      0         |                
   |         loc     2    0.000   2.298     pn      0         |                
   |                                                          |                
   | Augmentation charge Rinner = 1.606                       |                
   | Partial core correction Rc = 1.606                       |                
   ------------------------------------------------------------                
   | "2|2.3|5|6|7|50U:60:51:52(qc=4.5)"                       |                
   ------------------------------------------------------------                
   |      Author: Chris J. Pickard, Cambridge University      |                
   ============================================================                
 
 Pseudo atomic calculation performed for O 2s2 2p4
 
 Converged in 39 iterations to a total energy of -432.6554 eV
 
 
 Pseudo atomic calculation performed for Zr 4s2 4p6 4d2 5s2
 
 Converged in 38 iterations to a total energy of -1285.4931 eV
 
 
 Pseudo atomic calculation performed for Sn 4d10 5s2 5p2
 
 Converged in 48 iterations to a total energy of -2044.5414 eV
 
 
 Pseudo atomic calculation performed for La 5s2 5p6 5d1 6s2
 
 Converged in 34 iterations to a total energy of -968.0372 eV
 
 Calculation parallelised over 56 processes.
 Data is distributed by G-vector(4-way) and k-point(14-way)

 ************************************ Title ************************************
 nmr testing

 ***************************** General Parameters ******************************
  
 output verbosity                               : normal  (1)
 write checkpoint data to                       : 013.check
 type of calculation                            : Magnetic Resonance
 stress calculation                             : on
 density difference calculation                 : off
 electron localisation func (ELF) calculation   : off
 Hirshfeld analysis                             : off
 unlimited duration calculation
 timing information                             : on
 memory usage estimate                          : on
 write final potential to formatted file        : off
 write final density to formatted file          : off
 write structure in CIF formatted file          : on
 write structure in CELL formatted file         : on
 write BibTeX reference list                    : on
 write OTFG pseudopotential files               : on
 checkpoint writing                             : both castep_bin and check files
  
 output         length unit                     : A
 output           mass unit                     : amu
 output           time unit                     : ps
 output         charge unit                     : e
 output           spin unit                     : hbar/2
 output         energy unit                     : eV
 output          force unit                     : eV/A
 output       velocity unit                     : A/ps
 output       pressure unit                     : GPa
 output     inv_length unit                     : 1/A
 output      frequency unit                     : cm-1
 output force constant unit                     : eV/A**2
 output         volume unit                     : A**3
 output   IR intensity unit                     : (D/A)**2/amu
 output         dipole unit                     : D
 output         efield unit                     : eV/A/e
 output        entropy unit                     : J/mol/K
  
 wavefunctions paging                           : none
 random number generator seed                   : randomised (160401617)
 data distribution                              : optimal for this architecture
 optimization strategy                          : maximize speed(+++)

 *********************** Exchange-Correlation Parameters ***********************
  
 using functional                               : Perdew Burke Ernzerhof
 relativistic treatment                         : ZORA
 DFT+D: Semi-empirical dispersion correction    : off

 ************************* Pseudopotential Parameters **************************
  
 pseudopotential representation                 : reciprocal space
 <beta|phi> representation                      : reciprocal space
 spin-orbit coupling                            : off

 **************************** Basis Set Parameters *****************************
  
 plane wave basis set cut-off                   :   816.3416   eV
 size of standard grid                          :     1.7500
 size of   fine   gmax                          :    25.6161   1/A
 finite basis set correction                    : automatic
 number of sample energies                      :          3
           sample  spacing                      :     5.0000   eV

 **************************** Electronic Parameters ****************************
  
 number of  electrons                           :  720.0    
 net charge of system                           :  0.000    
 treating system as non-spin-polarized
 number of bands                                :        432

 ********************* Electronic Minimization Parameters **********************
  
 Method: Treating system as metallic with density mixing treatment of electrons,
         and number of  SD  steps               :          1
         and number of  CG  steps               :          4
  
 total energy / atom convergence tol.           : 0.1000E-08   eV
 eigen-energy convergence tolerance             : 0.2444E-09   eV
 max force / atom convergence tol.              : ignored
 convergence tolerance window                   :          3   cycles
 max. number of SCF cycles                      :         50
 number of fixed-spin iterations                :         10
 smearing scheme                                : Gaussian
 smearing width                                 : 0.2000       eV
 Fermi energy convergence tolerance             : 0.2721E-13   eV
 periodic dipole correction                     : NONE

 ************************** Density Mixing Parameters **************************
  
 density-mixing scheme                          : Broyden
 max. length of mixing history                  :         20
 charge density mixing amplitude                : 0.8000    
 cut-off energy for mixing                      :  816.3       eV

 *********************** Population Analysis Parameters ************************
  
 Population analysis with cutoff                :  3.000       A

 ************************ Magnetic Resonance Parameters ************************
  
 Magnetic Resonance Property                    : Chemical Shielding + EFG
 Position Operator Method                       : crystal
 max. number of MagRes CG steps                 :        250
 convergence tolerance window                   :          2   cycles
 energy convergence tolerance                   : 0.1000E-11   eV
 band convergence tolerance                     : 0.1000E-08   eV

 *******************************************************************************
  
 
                           -------------------------------
                                      Unit Cell
                           -------------------------------
        Real Lattice(A)                      Reciprocal Lattice(1/A)
  10.9027161  -0.0000159  -0.0000159        0.5762954   0.0000008   0.0000008
  -0.0000159  10.9000086  -0.0078928        0.0000008   0.5764389   0.0004174
  -0.0000159  -0.0078928  10.9000086        0.0000008   0.0004174   0.5764389
 
                       Lattice parameters(A)       Cell Angles
                    a =   10.902716          alpha =   90.082976
                    b =   10.900012          beta  =   90.000167
                    c =   10.900012          gamma =   90.000167
 
                       Current cell volume = 1295.353081       A**3
 
                           -------------------------------
                                     Cell Contents
                           -------------------------------
                         Total number of ions in cell =   88
                      Total number of species in cell =    4
                        Max number of any one species =   56
 
            xxxxxxxxxxxxxxxxxxxxxxxxxxxxxxxxxxxxxxxxxxxxxxxxxxxxxxxxxxxx
            x  Element    Atom        Fractional coordinates of atoms  x
            x            Number           u          v          w      x
            x----------------------------------------------------------x
            x  O            1         0.124905   0.125071   0.124735   x 
            x  O            2         0.625159   0.125095   0.624999   x 
            x  O            3         0.125159   0.624910   0.625012   x 
            x  O            4         0.624906   0.624936   0.125283   x 
            x  O            5         0.874841   0.374988   0.375090   x 
            x  O            6         0.875095   0.875265   0.874929   x 
            x  O            7         0.374841   0.375001   0.874905   x 
            x  O            8         0.375094   0.874717   0.375064   x 
            x  O            9         0.419733   0.124729   0.125283   x 
            x  O           10         0.329424   0.125156   0.624102   x 
            x  O           11         0.829423   0.624847   0.625899   x 
            x  O           12         0.919734   0.625274   0.124722   x 
            x  O           13         0.124436   0.421171   0.124392   x 
            x  O           14         0.624435   0.328833   0.125611   x 
            x  O           15         0.625192   0.829148   0.626357   x 
            x  O           16         0.125192   0.920855   0.623643   x 
            x  O           17         0.125664   0.124402   0.419053   x 
            x  O           18         0.124466   0.625698   0.329763   x 
            x  O           19         0.625665   0.625600   0.830962   x 
            x  O           20         0.624466   0.124305   0.920244   x 
            x  O           21         0.875534   0.670237   0.374302   x 
            x  O           22         0.874336   0.580947   0.875598   x 
            x  O           23         0.375534   0.079756   0.875695   x 
            x  O           24         0.374335   0.169038   0.374400   x 
            x  O           25         0.170577   0.374101   0.375153   x 
            x  O           26         0.080266   0.875278   0.374726   x 
            x  O           27         0.580267   0.874717   0.875271   x 
            x  O           28         0.670576   0.375898   0.874844   x 
            x  O           29         0.874808   0.376357   0.079145   x 
            x  O           30         0.374808   0.373643   0.170852   x 
            x  O           31         0.375565   0.874389   0.671167   x 
            x  O           32         0.875564   0.875608   0.578829   x 
            x  O           33         0.669589   0.875397   0.375395   x 
            x  O           34         0.079095   0.376207   0.875169   x 
            x  O           35         0.375677   0.670315   0.874623   x 
            x  O           36         0.875678   0.079677   0.375376   x 
            x  O           37         0.874394   0.375607   0.670919   x 
            x  O           38         0.374747   0.876460   0.079138   x 
            x  O           39         0.125606   0.329081   0.624393   x 
            x  O           40         0.625253   0.920862   0.123540   x 
            x  O           41         0.920905   0.124831   0.623793   x 
            x  O           42         0.330411   0.624605   0.124603   x 
            x  O           43         0.124322   0.624624   0.920323   x 
            x  O           44         0.624323   0.125377   0.329685   x 
            x  O           45         0.420906   0.625170   0.626207   x 
            x  O           46         0.830409   0.125396   0.125402   x 
            x  O           47         0.125781   0.125855   0.830710   x 
            x  O           48         0.625780   0.624147   0.419304   x 
            x  O           49         0.874219   0.169290   0.874145   x 
            x  O           50         0.374220   0.580696   0.375853   x 
            x  O           51         0.169591   0.874598   0.874604   x 
            x  O           52         0.579094   0.373793   0.374830   x 
            x  O           53         0.874748   0.873535   0.170860   x 
            x  O           54         0.374396   0.374393   0.579076   x 
            x  O           55         0.125252   0.829140   0.126465   x 
            x  O           56         0.625604   0.420924   0.625607   x 
            x  Zr           1         0.500000   0.500056   0.499944   x 
            x  Zr           2         0.249999   0.749983   1.000017   x 
            x  Zr           3         0.750001  -0.000017   0.250017   x 
            x  Zr           4        -0.000000   0.249992   0.750008   x 
            x  Zr           5         0.749916   0.249932   0.000034   x 
            x  Zr           6         0.250084   0.999966   0.750068   x 
            x  Zr           7         0.750086   0.750048   0.499900   x 
            x  Zr           8         0.249914   0.500100   0.249952   x 
            x  Sn           1        -0.000000   0.749918   0.250082   x 
            x  Sn           2         0.500000   0.000082   0.999918   x 
            x  Sn           3         0.250001   0.249554   0.499553   x 
            x  Sn           4         0.749999   0.500447   0.750446   x 
            x  Sn           5         0.999590   0.500502   0.999921   x 
            x  Sn           6         0.499589   0.249495   0.250080   x 
            x  Sn           7         0.500411   0.749920   0.750505   x 
            x  Sn           8         0.000410   0.000079   0.499498   x 
            x  La           1        -0.000000   0.000521   0.999479   x 
            x  La           2         0.749999   0.250086   0.500088   x 
            x  La           3         0.250001   0.499912   0.749914   x 
            x  La           4         0.500000   0.749481   0.250519   x 
            x  La           5         0.250381   0.749678   0.500026   x 
            x  La           6         0.749619   0.499974   0.250322   x 
            x  La           7         0.500000   0.250093   0.749907   x 
            x  La           8         0.000000   0.499906   0.500094   x 
            x  La           9         0.749999   0.750462   0.000461   x 
            x  La          10         0.250001   0.999539   0.249538   x 
            x  La          11         0.249618   0.250025   0.999679   x 
            x  La          12         0.750382   0.000321   0.749975   x 
            x  La          13         0.500374   0.999555   0.499999   x 
            x  La          14         0.000375   0.750446   0.750003   x 
            x  La          15         0.999625   0.249997   0.249554   x 
            x  La          16         0.499626   0.500001   0.000445   x 
            xxxxxxxxxxxxxxxxxxxxxxxxxxxxxxxxxxxxxxxxxxxxxxxxxxxxxxxxxxxx
 
 
                         No user defined ionic velocities
 
                           -------------------------------
                                   Details of Species
                           -------------------------------
 
                               Mass of species in AMU
                                    O   15.9994000
                                    Zr   91.2240000
                                    Sn  118.7100000
                                    La  138.9055000
 
                          Electric Quadrupole Moment (Barn)
                                    O   -0.0255800 Isotope 17
                                    Zr   -0.1760000 Isotope 91
                                    Sn    1.0000000 No Isotope Defined
                                    La    0.2000000 Isotope139
 
                          Files used for pseudopotentials:
                                    O 2|1.1|15|18|20|20:21(qc=7)
                                    Zr 3|2.1|7|8|9|40U:50:41:42
                                    Sn 3|2.2|7|8|9|50:51:42
                                    La 2|2.3|5|6|7|50U:60:51:52(qc=4.5)
 
                           -------------------------------
                              k-Points For BZ Sampling
                           -------------------------------
                       MP grid size for SCF calculation is  3  3  3
                            with an offset of   0.000  0.000  0.000
                       Number of kpoints used =            14
 
                           -------------------------------
                               Symmetry and Constraints
                           -------------------------------
 
                      Maximum deviation from symmetry =  0.00000         ANG
 
         There are no symmetry operations specified or generated for this cell
                      Number of ionic constraints     =           3
                      Point group of crystal =     1: C1, 1, 1
                      Space group of crystal =     5: C2, C 2y
 
 
                         Centre of mass is constrained
             Set iprint > 1 for details of linear ionic constraints
 
                         Number of cell constraints= 0
                         Cell constraints are:  1 2 3 4 5 6
 
                         External pressure/stress (GPa)
                          0.00000   0.00000   0.00000
                                    0.00000   0.00000
                                              0.00000
  
+---------------- MEMORY AND SCRATCH DISK ESTIMATES PER PROCESS --------------+
|                                                     Memory          Disk    |
| Baseline code, static data and system overhead      322.0 MB         0.0 MB |
| BLAS internal memory storage                          0.0 MB         0.0 MB |
| Model and support data                             1319.2 MB         0.0 MB |
| Electronic energy minimisation requirements         381.8 MB         0.0 MB |
| Force calculation requirements                       24.1 MB         0.0 MB |
| Stress calculation requirements                      28.3 MB         0.0 MB |
|                                               ----------------------------- |
| Approx. total storage required per process         2023.0 MB         0.0 MB |
|                                                                             |
| Requirements will fluctuate during execution and may exceed these estimates |
+-----------------------------------------------------------------------------+
Calculating finite basis set correction with  3 cut-off energies.
Calculating total energy with cut-off of  806.342eV.
------------------------------------------------------------------------ <-- SCF
SCF loop      Energy           Fermi           Energy gain       Timer   <-- SCF
                               energy          per atom          (sec)   <-- SCF
------------------------------------------------------------------------ <-- SCF
Initial  -5.62616313E+004  0.00000000E+000                        76.30  <-- SCF
      1  -6.45178225E+004  7.53516802E+000   9.38203549E+001     218.74  <-- SCF
      2  -6.70870005E+004  6.84919293E+000   2.91952047E+001     312.24  <-- SCF
      3  -6.71703580E+004  6.55020335E+000   9.47244077E-001     416.98  <-- SCF
      4  -6.71640629E+004  7.64624301E+000  -7.15350616E-002     547.88  <-- SCF
      5  -6.70610885E+004  7.07395590E+000  -1.17016350E+000     678.48  <-- SCF
      6  -6.70625234E+004  6.99216867E+000   1.63051801E-002     840.99  <-- SCF
      7  -6.70622105E+004  7.06142775E+000  -3.55488884E-003     979.31  <-- SCF
      8  -6.70622921E+004  7.06932579E+000   9.26659308E-004    1162.13  <-- SCF
      9  -6.70623146E+004  7.07523376E+000   2.55713846E-004    1313.43  <-- SCF
     10  -6.70623153E+004  7.07459684E+000   7.47263429E-006    1457.53  <-- SCF
     11  -6.70623150E+004  7.07726121E+000  -2.71687561E-006    1601.90  <-- SCF
     12  -6.70623154E+004  7.07842446E+000   4.49703628E-006    1753.41  <-- SCF
     13  -6.70623155E+004  7.07868613E+000   4.75788242E-007    1892.07  <-- SCF
     14  -6.70623155E+004  7.07886738E+000   8.93135171E-008    2026.23  <-- SCF
     15  -6.70623155E+004  7.07897303E+000   4.50278471E-008    2163.13  <-- SCF
     16  -6.70623155E+004  7.07899051E+000   1.96863948E-009    2273.57  <-- SCF
     17  -6.70623155E+004  7.07898768E+000  -1.40898340E-010    2369.83  <-- SCF
     18  -6.70623155E+004  7.07898543E+000   6.11684409E-011    2464.01  <-- SCF
------------------------------------------------------------------------ <-- SCF
 
Final energy, E             =  -67062.31546235     eV
Final free energy (E-TS)    =  -67062.31546235     eV
(energies not corrected for finite basis set)
 
NB est. 0K energy (E-0.5TS)      =  -67062.31546235     eV
 
Calculating total energy with cut-off of  811.342eV.
------------------------------------------------------------------------ <-- SCF
SCF loop      Energy           Fermi           Energy gain       Timer   <-- SCF
                               energy          per atom          (sec)   <-- SCF
------------------------------------------------------------------------ <-- SCF
Initial  -6.70623155E+004  0.00000000E+000                      2499.76  <-- SCF
      1  -6.70623179E+004  7.07896523E+000   2.81068016E-005    2611.26  <-- SCF
      2  -6.70623179E+004  7.07896523E+000   2.00379375E-010    2701.24  <-- SCF
      3  -6.70623179E+004  7.07897020E+000   1.63885018E-008    2791.81  <-- SCF
      4  -6.70623179E+004  7.07897354E+000   5.38985366E-010    2881.18  <-- SCF
      5  -6.70623179E+004  7.07897518E+000  -3.33262540E-011    2970.77  <-- SCF
------------------------------------------------------------------------ <-- SCF
 
Final energy, E             =  -67062.31793725     eV
Final free energy (E-TS)    =  -67062.31793725     eV
(energies not corrected for finite basis set)
 
NB est. 0K energy (E-0.5TS)      =  -67062.31793725     eV
 
Calculating total energy with cut-off of  816.342eV.
------------------------------------------------------------------------ <-- SCF
SCF loop      Energy           Fermi           Energy gain       Timer   <-- SCF
                               energy          per atom          (sec)   <-- SCF
------------------------------------------------------------------------ <-- SCF
Initial  -6.70623179E+004  0.00000000E+000                      3006.41  <-- SCF
      1  -6.70623209E+004  7.07897544E+000   3.35128199E-005    3118.78  <-- SCF
      2  -6.70623209E+004  7.07897544E+000   2.01223078E-010    3208.49  <-- SCF
      3  -6.70623209E+004  7.07897007E+000   2.07496007E-008    3296.48  <-- SCF
      4  -6.70623209E+004  7.07897344E+000   6.64275207E-010    3384.05  <-- SCF
      5  -6.70623209E+004  7.07897166E+000  -4.02164922E-011    3472.67  <-- SCF
------------------------------------------------------------------------ <-- SCF
 
Final energy, E             =  -67062.32088828     eV
Final free energy (E-TS)    =  -67062.32088828     eV
(energies not corrected for finite basis set)
 
NB est. 0K energy (E-0.5TS)      =  -67062.32088828     eV
 
 For future reference: finite basis dEtot/dlog(Ecut) =      -0.439332eV
 Total energy corrected for finite basis set =  -67062.320889 eV
 
  =====================================================================
  +       Calculation of Nuclear Magnetic Resonance Parameters        +
  + ================================================================= +
 
  Starting Calculation of Electric Field Gradient Tensors         |<-- EFG
  +---------------- MEMORY AND SCRATCH DISK ESTIMATES PER PROCESS --------------+
  |                                                     Memory          Disk    |
  | Model and support data                             1316.9 MB         0.0 MB |
  | NMR EFG calculation requirements                    367.5 MB         0.0 MB |
  |                                               ----------------------------- |
  | Approx. total storage required per process         1684.4 MB         0.0 MB |
  |                                                                             |
  | Requirements will fluctuate during execution and may exceed these estimates |
  +-----------------------------------------------------------------------------+
  Total Time for EFG Tensors                     409.30 sec       |<-- EFG
 
  Starting Calculation of Chemical Shielding Tensors              |<-- NMR
  +---------------- MEMORY AND SCRATCH DISK ESTIMATES PER PROCESS --------------+
  |                                                     Memory          Disk    |
  | Model and support data                             1316.9 MB         0.0 MB |
  | NMR chemical shift calculation requirements         564.4 MB         0.0 MB |
  |                                               ----------------------------- |
  | Approx. total storage required per process         1881.3 MB         0.0 MB |
  |                                                                             |
  | Requirements will fluctuate during execution and may exceed these estimates |
  +-----------------------------------------------------------------------------+
  Starting k-point:   1 of   1                                    |<-- NMR
  Total Time for step 1 of 6:                   3271.67 sec       |<-- NMR
  Total Time for step 2 of 6:                   3260.78 sec       |<-- NMR
  Total Time for step 3 of 6:                   3253.28 sec       |<-- NMR
  Total Time for step 4 of 6:                   3259.04 sec       |<-- NMR
  Total Time for step 5 of 6:                   3254.05 sec       |<-- NMR
  Total Time for step 6 of 6:                   3258.44 sec       |<-- NMR
  Total Time for Chemical Shielding Tensors    29218.88 sec       |<-- NMR
 
  ========================================================================
  |           Chemical Shielding and Electric Field Gradient Tensors     |
  |----------------------------------------------------------------------|
  |     Nucleus                Shielding tensor             EFG Tensor   |
  |  Species       Ion    Iso(ppm)   Aniso(ppm)  Asym    Cq(MHz)    Eta  |
  |    O           1     -317.86     -18.33      0.56   3.682E-02   0.85 |
  |    O           2     -316.96       8.06      0.98   4.376E-02   0.71 |
  |    O           3     -316.95       7.99      0.98   4.344E-02   0.71 |
  |    O           4     -317.86     -18.48      0.56   3.692E-02   0.85 |
  |    O           5     -316.95       7.97      0.99   4.344E-02   0.71 |
  |    O           6     -317.86     -18.32      0.56   3.682E-02   0.85 |
  |    O           7     -316.96       8.05      0.99   4.376E-02   0.71 |
  |    O           8     -317.86     -18.48      0.56   3.692E-02   0.85 |
  |    O           9       -2.90      70.35      0.51   3.900E+00   0.86 |
  |    O          10      -87.60      84.87      0.22  -3.151E+00   0.08 |
  |    O          11      -87.57      84.63      0.22  -3.151E+00   0.08 |
  |    O          12       -2.89      70.34      0.51   3.900E+00   0.86 |
  |    O          13      -88.74      95.50      0.35  -3.101E+00   0.09 |
  |    O          14      -88.74      95.40      0.35  -3.101E+00   0.09 |
  |    O          15      -86.80      86.97      0.06  -3.209E+00   0.09 |
  |    O          16      -86.79      87.07      0.06  -3.209E+00   0.09 |
  |    O          17       -0.75      67.73      0.80   3.847E+00   0.88 |
  |    O          18      -85.56      84.72      0.23  -3.226E+00   0.08 |
  |    O          19       -0.82      67.73      0.80   3.846E+00   0.88 |
  |    O          20      -85.53      84.57      0.23  -3.227E+00   0.08 |
  |    O          21      -85.56      84.74      0.23  -3.226E+00   0.08 |
  |    O          22       -0.75      67.77      0.80   3.847E+00   0.88 |
  |    O          23      -85.53      84.59      0.23  -3.227E+00   0.08 |
  |    O          24       -0.82      67.76      0.80   3.846E+00   0.88 |
  |    O          25      -87.57      84.65      0.22  -3.151E+00   0.08 |
  |    O          26       -2.89      70.34      0.51   3.900E+00   0.86 |
  |    O          27       -2.90      70.35      0.51   3.900E+00   0.86 |
  |    O          28      -87.60      84.88      0.22  -3.151E+00   0.08 |
  |    O          29      -86.79      87.06      0.06  -3.209E+00   0.09 |
  |    O          30      -86.80      86.95      0.06  -3.209E+00   0.09 |
  |    O          31      -88.74      95.38      0.35  -3.101E+00   0.09 |
  |    O          32      -88.74      95.49      0.35  -3.101E+00   0.09 |
  |    O          33     -162.13     147.50      0.87   1.059E+00   0.72 |
  |    O          34      -89.73      93.56      0.23  -3.217E+00   0.10 |
  |    O          35      -86.77      87.07      0.33  -3.207E+00   0.09 |
  |    O          36      -86.77      87.22      0.33  -3.207E+00   0.09 |
  |    O          37      -90.71      91.23      0.28  -3.132E+00   0.09 |
  |    O          38      -85.34      87.35      0.07  -3.212E+00   0.09 |
  |    O          39      -90.71      91.24      0.28  -3.132E+00   0.09 |
  |    O          40      -85.34      87.37      0.07  -3.212E+00   0.09 |
  |    O          41      -89.73      93.55      0.23  -3.217E+00   0.10 |
  |    O          42     -162.12     147.49      0.87   1.059E+00   0.72 |
  |    O          43      -86.77      87.20      0.33  -3.207E+00   0.09 |
  |    O          44      -86.77      87.06      0.33  -3.207E+00   0.09 |
  |    O          45      -89.70      93.47      0.23  -3.217E+00   0.10 |
  |    O          46     -162.15     147.14      0.87   1.057E+00   0.73 |
  |    O          47     -162.62     152.31      0.86   1.038E+00   0.79 |
  |    O          48     -162.55     152.70      0.86   1.039E+00   0.78 |
  |    O          49     -162.62     152.34      0.86   1.038E+00   0.79 |
  |    O          50     -162.55     152.73      0.86   1.039E+00   0.78 |
  |    O          51     -162.15     147.14      0.87   1.057E+00   0.73 |
  |    O          52      -89.70      93.47      0.23  -3.217E+00   0.10 |
  |    O          53      -85.33      87.42      0.07  -3.212E+00   0.09 |
  |    O          54      -90.58      90.73      0.28  -3.134E+00   0.10 |
  |    O          55      -85.33      87.44      0.07  -3.212E+00   0.09 |
  |    O          56      -90.58      90.73      0.28  -3.134E+00   0.10 |
  |    Zr          1     1623.20    -122.52      0.13  -3.671E+01   0.01 |
  |    Zr          2     1623.31    -128.10      0.20  -3.670E+01   0.10 |
  |    Zr          3     1623.31    -128.10      0.20  -3.670E+01   0.10 |
  |    Zr          4     1622.91    -122.44      0.13  -3.671E+01   0.00 |
  |    Zr          5     1622.53    -122.51      0.11  -3.654E+01   0.06 |
  |    Zr          6     1622.53    -122.52      0.11  -3.654E+01   0.06 |
  |    Zr          7     1622.54    -122.54      0.11  -3.656E+01   0.08 |
  |    Zr          8     1622.54    -122.54      0.11  -3.656E+01   0.08 |
  |    Sn          1     3256.98     -61.88      0.12   1.277E+02   0.12 |
  |    Sn          2     3256.89     -62.04      0.12   1.277E+02   0.12 |
  |    Sn          3     3255.88     -50.90      0.05   1.272E+02   0.03 |
  |    Sn          4     3255.88     -50.90      0.04   1.272E+02   0.03 |
  |    Sn          5     3256.13     -53.27      0.17   1.272E+02   0.11 |
  |    Sn          6     3256.09     -53.29      0.17   1.273E+02   0.11 |
  |    Sn          7     3256.09     -53.31      0.17   1.273E+02   0.11 |
  |    Sn          8     3256.13     -53.28      0.17   1.272E+02   0.11 |
  |    La          1     4752.49     865.21      0.04  -8.860E+01   0.05 |
  |    La          2     4652.28     650.74      0.02  -8.116E+01   0.01 |
  |    La          3     4652.28     650.74      0.02  -8.116E+01   0.01 |
  |    La          4     4752.47     865.90      0.04  -8.869E+01   0.05 |
  |    La          5     4651.73     657.01      0.09  -8.023E+01   0.11 |
  |    La          6     4651.73     657.02      0.09  -8.023E+01   0.11 |
  |    La          7     4660.90     647.39      0.01  -8.235E+01   0.01 |
  |    La          8     4660.95     647.62      0.01  -8.233E+01   0.01 |
  |    La          9     4544.32     381.29      0.08  -7.172E+01   0.09 |
  |    La         10     4544.32     381.29      0.08  -7.172E+01   0.09 |
  |    La         11     4651.75     656.85      0.08  -8.021E+01   0.11 |
  |    La         12     4651.75     656.84      0.09  -8.021E+01   0.11 |
  |    La         13     4660.23     654.44      0.08  -8.130E+01   0.12 |
  |    La         14     4660.25     654.49      0.08  -8.135E+01   0.12 |
  |    La         15     4660.25     654.49      0.08  -8.135E+01   0.12 |
  |    La         16     4660.23     654.44      0.08  -8.130E+01   0.12 |
  ========================================================================
 
 *********************** Forces ***********************
 *                                                    *
 *            Cartesian components (eV/A)             *
 * -------------------------------------------------- *
 *                   x            y            z      *
 *                                                    *
 * O         1     -0.00644      0.00033     -0.00928 *
 * O         2      0.00206     -0.00298     -0.00051 *
 * O         3      0.00213      0.00215     -0.00080 *
 * O         4     -0.00703     -0.00089      0.00922 *
 * O         5     -0.00213      0.00081     -0.00215 *
 * O         6      0.00644      0.00928     -0.00033 *
 * O         7     -0.00206      0.00051      0.00298 *
 * O         8      0.00703     -0.00922      0.00089 *
 * O         9      0.00039      0.00028     -0.00023 *
 * O        10      0.00726      0.01821     -0.01926 *
 * O        11      0.00680     -0.01725      0.01790 *
 * O        12      0.00053     -0.00048     -0.00014 *
 * O        13     -0.01925     -0.00055     -0.02007 *
 * O        14     -0.01927      0.00187      0.01986 *
 * O        15     -0.01596      0.00164      0.02420 *
 * O        16     -0.01660     -0.00189     -0.02605 *
 * O        17     -0.00215     -0.00837     -0.00195 *
 * O        18     -0.02543      0.01729     -0.00079 *
 * O        19     -0.00200      0.00859      0.00230 *
 * O        20     -0.02596     -0.01670      0.00042 *
 * O        21      0.02543      0.00079     -0.01729 *
 * O        22      0.00215      0.00195      0.00837 *
 * O        23      0.02596     -0.00042      0.01670 *
 * O        24      0.00200     -0.00230     -0.00859 *
 * O        25     -0.00680     -0.01790      0.01724 *
 * O        26     -0.00053      0.00014      0.00047 *
 * O        27     -0.00039      0.00023     -0.00028 *
 * O        28     -0.00726      0.01926     -0.01821 *
 * O        29      0.01660      0.02605      0.00189 *
 * O        30      0.01596     -0.02420     -0.00164 *
 * O        31      0.01927     -0.01986     -0.00187 *
 * O        32      0.01925      0.02007      0.00055 *
 * O        33     -0.00064     -0.00548     -0.00590 *
 * O        34     -0.00735      0.01057      0.00810 *
 * O        35      0.01537      0.00138     -0.02605 *
 * O        36      0.01580     -0.00186      0.02676 *
 * O        37     -0.00806      0.00608      0.00320 *
 * O        38      0.03048      0.01455      0.00313 *
 * O        39      0.00806     -0.00320     -0.00608 *
 * O        40     -0.03048     -0.00313     -0.01455 *
 * O        41      0.00735     -0.00810     -0.01057 *
 * O        42      0.00064      0.00590      0.00548 *
 * O        43     -0.01580     -0.02676      0.00186 *
 * O        44     -0.01536      0.02605     -0.00138 *
 * O        45      0.00737      0.00898      0.00937 *
 * O        46     -0.00067     -0.00590     -0.00423 *
 * O        47     -0.00725      0.00198     -0.00568 *
 * O        48     -0.00686      0.00011      0.00330 *
 * O        49      0.00725      0.00568     -0.00197 *
 * O        50      0.00686     -0.00330     -0.00011 *
 * O        51      0.00067      0.00423      0.00590 *
 * O        52     -0.00737     -0.00937     -0.00898 *
 * O        53      0.03016     -0.01529     -0.00236 *
 * O        54     -0.00795     -0.00499     -0.00435 *
 * O        55     -0.03016      0.00236      0.01529 *
 * O        56      0.00795      0.00435      0.00499 *
 * Zr        1     -0.00000     -0.02108      0.02108 *
 * Zr        2     -0.00107     -0.00696     -0.01574 *
 * Zr        3      0.00107      0.01573      0.00698 *
 * Zr        4      0.00000      0.00781     -0.00782 *
 * Zr        5     -0.00453     -0.00280     -0.00387 *
 * Zr        6      0.00453      0.00386      0.00279 *
 * Zr        7      0.00723     -0.00142      0.01443 *
 * Zr        8     -0.00723     -0.01442      0.00143 *
 * Sn        1      0.00000     -0.00570      0.00571 *
 * Sn        2     -0.00000      0.00672     -0.00672 *
 * Sn        3      0.00122      0.00345      0.00132 *
 * Sn        4     -0.00122     -0.00132     -0.00345 *
 * Sn        5      0.00435      0.00676     -0.00109 *
 * Sn        6      0.00455     -0.00656      0.00079 *
 * Sn        7     -0.00455     -0.00078      0.00656 *
 * Sn        8     -0.00435      0.00109     -0.00676 *
 * La        1      0.00000     -0.01204      0.01204 *
 * La        2     -0.00082      0.00106      0.00050 *
 * La        3      0.00081     -0.00049     -0.00107 *
 * La        4     -0.00000      0.01429     -0.01428 *
 * La        5     -0.00706      0.01623      0.00305 *
 * La        6      0.00706     -0.00305     -0.01622 *
 * La        7     -0.00000      0.00317     -0.00318 *
 * La        8      0.00000     -0.00222      0.00223 *
 * La        9     -0.00007     -0.01180     -0.01255 *
 * La       10      0.00007      0.01254      0.01181 *
 * La       11      0.00636      0.00148      0.01525 *
 * La       12     -0.00637     -0.01525     -0.00149 *
 * La       13     -0.01991      0.01212      0.00105 *
 * La       14     -0.01917     -0.01111     -0.00049 *
 * La       15      0.01917      0.00048      0.01112 *
 * La       16      0.01991     -0.00105     -0.01212 *
 *                                                    *
 ******************************************************
 
 ***************** Stress Tensor *****************
 *                                               *
 *          Cartesian components (GPa)           *
 * --------------------------------------------- *
 *             x             y             z     *
 *                                               *
 *  x     -0.001124     -0.000002     -0.000002  *
 *  y     -0.000002      0.000193     -0.007330  *
 *  z     -0.000002     -0.007330      0.000193  *
 *                                               *
 *  Pressure:    0.0002                          *
 *                                               *
 *************************************************
 
 Pseudo atomic calculation performed for O 2s2 2p4
 
 Converged in 39 iterations to a total energy of -432.6554 eV
 
 
 Pseudo atomic calculation performed for Zr 4s2 4p6 4d2 5s2
 
 Converged in 38 iterations to a total energy of -1285.4931 eV
 
 
 Pseudo atomic calculation performed for Sn 4d10 5s2 5p2
 
 Converged in 48 iterations to a total energy of -2044.5414 eV
 
 
 Pseudo atomic calculation performed for La 5s2 5p6 5d1 6s2
 
 Converged in 34 iterations to a total energy of -968.0372 eV
 
Charge spilling parameter for spin component 1 = 0.24%
 
     Atomic Populations (Mulliken)
     -----------------------------
Species   Ion     s      p      d      f     Total  Charge (e)
==============================================================
  O        1     1.87   5.00   0.00   0.00   6.87    -0.87
  O        2     1.87   5.00   0.00   0.00   6.87    -0.87
  O        3     1.87   5.00   0.00   0.00   6.87    -0.87
  O        4     1.87   5.00   0.00   0.00   6.87    -0.87
  O        5     1.87   5.00   0.00   0.00   6.87    -0.87
  O        6     1.87   5.00   0.00   0.00   6.87    -0.87
  O        7     1.87   5.00   0.00   0.00   6.87    -0.87
  O        8     1.87   5.00   0.00   0.00   6.87    -0.87
  O        9     1.88   5.02   0.00   0.00   6.91    -0.91
  O       10     1.87   4.99   0.00   0.00   6.86    -0.86
  O       11     1.87   4.99   0.00   0.00   6.86    -0.86
  O       12     1.88   5.02   0.00   0.00   6.91    -0.91
  O       13     1.87   4.99   0.00   0.00   6.86    -0.86
  O       14     1.87   4.99   0.00   0.00   6.86    -0.86
  O       15     1.87   4.99   0.00   0.00   6.86    -0.86
  O       16     1.87   4.99   0.00   0.00   6.86    -0.86
  O       17     1.88   5.02   0.00   0.00   6.91    -0.91
  O       18     1.87   4.99   0.00   0.00   6.86    -0.86
  O       19     1.88   5.02   0.00   0.00   6.91    -0.91
  O       20     1.87   4.99   0.00   0.00   6.86    -0.86
  O       21     1.87   4.99   0.00   0.00   6.86    -0.86
  O       22     1.88   5.02   0.00   0.00   6.91    -0.91
  O       23     1.87   4.99   0.00   0.00   6.86    -0.86
  O       24     1.88   5.02   0.00   0.00   6.91    -0.91
  O       25     1.87   4.99   0.00   0.00   6.86    -0.86
  O       26     1.88   5.02   0.00   0.00   6.91    -0.91
  O       27     1.88   5.02   0.00   0.00   6.91    -0.91
  O       28     1.87   4.99   0.00   0.00   6.86    -0.86
  O       29     1.87   4.99   0.00   0.00   6.86    -0.86
  O       30     1.87   4.99   0.00   0.00   6.86    -0.86
  O       31     1.87   4.99   0.00   0.00   6.86    -0.86
  O       32     1.87   4.99   0.00   0.00   6.86    -0.86
  O       33     1.86   4.95   0.00   0.00   6.80    -0.80
  O       34     1.87   4.99   0.00   0.00   6.86    -0.86
  O       35     1.87   4.99   0.00   0.00   6.86    -0.86
  O       36     1.87   4.99   0.00   0.00   6.86    -0.86
  O       37     1.87   4.99   0.00   0.00   6.86    -0.86
  O       38     1.87   4.99   0.00   0.00   6.86    -0.86
  O       39     1.87   4.99   0.00   0.00   6.86    -0.86
  O       40     1.87   4.99   0.00   0.00   6.86    -0.86
  O       41     1.87   4.99   0.00   0.00   6.86    -0.86
  O       42     1.86   4.95   0.00   0.00   6.80    -0.80
  O       43     1.87   4.99   0.00   0.00   6.86    -0.86
  O       44     1.87   4.99   0.00   0.00   6.86    -0.86
  O       45     1.87   4.99   0.00   0.00   6.86    -0.86
  O       46     1.86   4.95   0.00   0.00   6.80    -0.80
  O       47     1.86   4.95   0.00   0.00   6.80    -0.80
  O       48     1.86   4.95   0.00   0.00   6.80    -0.80
  O       49     1.86   4.95   0.00   0.00   6.80    -0.80
  O       50     1.86   4.95   0.00   0.00   6.80    -0.80
  O       51     1.86   4.95   0.00   0.00   6.80    -0.80
  O       52     1.87   4.99   0.00   0.00   6.86    -0.86
  O       53     1.87   4.99   0.00   0.00   6.86    -0.86
  O       54     1.87   4.99   0.00   0.00   6.86    -0.86
  O       55     1.87   4.99   0.00   0.00   6.86    -0.86
  O       56     1.87   4.99   0.00   0.00   6.86    -0.86
  Zr       1     2.38   6.49   1.92   0.00  10.79     1.21
  Zr       2     2.37   6.49   1.92   0.00  10.78     1.22
  Zr       3     2.37   6.49   1.92   0.00  10.78     1.22
  Zr       4     2.38   6.49   1.92   0.00  10.79     1.21
  Zr       5     2.37   6.49   1.92   0.00  10.78     1.22
  Zr       6     2.37   6.49   1.92   0.00  10.78     1.22
  Zr       7     2.37   6.49   1.92   0.00  10.78     1.22
  Zr       8     2.37   6.49   1.92   0.00  10.78     1.22
  Sn       1     1.05   1.31  10.00   0.00  12.36     1.64
  Sn       2     1.05   1.31  10.00   0.00  12.36     1.64
  Sn       3     1.05   1.31  10.00   0.00  12.36     1.64
  Sn       4     1.05   1.31  10.00   0.00  12.36     1.64
  Sn       5     1.05   1.31  10.00   0.00  12.36     1.64
  Sn       6     1.05   1.31  10.00   0.00  12.36     1.64
  Sn       7     1.05   1.31  10.00   0.00  12.36     1.64
  Sn       8     1.05   1.31  10.00   0.00  12.36     1.64
  La       1     2.02   6.15   1.20   0.00   9.37     1.63
  La       2     2.06   6.17   1.19   0.00   9.43     1.57
  La       3     2.06   6.17   1.19   0.00   9.43     1.57
  La       4     2.02   6.15   1.20   0.00   9.37     1.63
  La       5     2.07   6.17   1.19   0.00   9.44     1.56
  La       6     2.07   6.17   1.19   0.00   9.44     1.56
  La       7     2.03   6.18   1.19   0.00   9.40     1.60
  La       8     2.03   6.18   1.19   0.00   9.40     1.60
  La       9     2.11   6.20   1.19   0.00   9.50     1.50
  La      10     2.11   6.20   1.19   0.00   9.50     1.50
  La      11     2.07   6.17   1.19   0.00   9.44     1.56
  La      12     2.07   6.17   1.19   0.00   9.44     1.56
  La      13     2.05   6.18   1.19   0.00   9.42     1.58
  La      14     2.05   6.18   1.19   0.00   9.42     1.58
  La      15     2.05   6.18   1.19   0.00   9.42     1.58
  La      16     2.05   6.18   1.19   0.00   9.42     1.58
==============================================================
 
            Bond              Population      Length (A)
============================================================
         O 53 -- Sn 1              0.35        2.10462
         O 55 -- Sn 1              0.35        2.10462
         O 40 -- Sn 2              0.35        2.10465
         O 38 -- Sn 2              0.35        2.10465
         O 34 -- Sn 5              0.34        2.10491
         O 41 -- Sn 8              0.34        2.10491
         O 52 -- Sn 6              0.34        2.10491
         O 45 -- Sn 7              0.34        2.10491
         O 16 -- Sn 8              0.35        2.10501
         O 29 -- Sn 5              0.35        2.10501
         O 15 -- Sn 7              0.35        2.10504
         O 30 -- Sn 6              0.35        2.10504
         O 23 -- Sn 2              0.35        2.10535
         O 20 -- Sn 2              0.35        2.10535
         O 21 -- Sn 1              0.35        2.10536
         O 18 -- Sn 1              0.35        2.10536
         O 43 -- Sn 5              0.35        2.10617
         O 36 -- Sn 8              0.35        2.10617
         O 44 -- Sn 6              0.35        2.10619
         O 35 -- Sn 7              0.35        2.10619
         O 10 -- Sn 3              0.35        2.10636
         O 28 -- Sn 4              0.35        2.10636
         O 11 -- Sn 4              0.35        2.10637
         O 25 -- Sn 3              0.35        2.10637
         O 54 -- Sn 3              0.34        2.10688
         O 56 -- Sn 4              0.34        2.10688
         O 37 -- Sn 4              0.34        2.10692
         O 39 -- Sn 3              0.34        2.10692
         O 32 -- Sn 8              0.34        2.10823
         O 13 -- Sn 5              0.34        2.10823
         O 14 -- Sn 6              0.34        2.10824
         O 31 -- Sn 7              0.34        2.10824
         O 27 -- Sn 7              0.34        2.11009
         O 9  -- Sn 6              0.34        2.11009
         O 26 -- Sn 8              0.34        2.11017
         O 12 -- Sn 5              0.34        2.11017
         O 22 -- Sn 4              0.34        2.11307
         O 17 -- Sn 3              0.34        2.11307
         O 19 -- Sn 4              0.34        2.11313
         O 24 -- Sn 3              0.34        2.11313
         O 12 -- Sn 1              0.33        2.11504
         O 26 -- Sn 1              0.33        2.11504
         O 22 -- Sn 5              0.33        2.11507
         O 17 -- Sn 8              0.33        2.11507
         O 19 -- Sn 7              0.33        2.11511
         O 24 -- Sn 6              0.33        2.11511
         O 27 -- Sn 2              0.33        2.11511
         O 9  -- Sn 2              0.33        2.11511
         O 13 -- Zr 8              0.45        2.11693
         O 32 -- Zr 7              0.45        2.11693
         O 31 -- Zr 6              0.45        2.11695
         O 14 -- Zr 5              0.45        2.11695
         O 42 -- Zr 8              0.42        2.11757
         O 33 -- Zr 7              0.42        2.11757
         O 51 -- Zr 6              0.42        2.11790
         O 46 -- Zr 5              0.42        2.11790
         O 33 -- Zr 3              0.41        2.11797
         O 42 -- Zr 2              0.41        2.11797
         O 48 -- Zr 1              0.42        2.11804
         O 50 -- Zr 1              0.42        2.11804
         O 51 -- Zr 2              0.41        2.11840
         O 46 -- Zr 3              0.41        2.11840
         O 50 -- Zr 8              0.42        2.11856
         O 48 -- Zr 7              0.42        2.11856
         O 49 -- Zr 5              0.42        2.11866
         O 47 -- Zr 6              0.42        2.11866
         O 49 -- Zr 4              0.42        2.11867
         O 47 -- Zr 4              0.42        2.11867
         O 55 -- Zr 2              0.45        2.11908
         O 53 -- Zr 3              0.45        2.11908
         O 40 -- Zr 3              0.45        2.11913
         O 38 -- Zr 2              0.45        2.11913
         O 41 -- Zr 4              0.45        2.11945
         O 34 -- Zr 4              0.45        2.11945
         O 45 -- Zr 1              0.45        2.11946
         O 52 -- Zr 1              0.45        2.11946
         O 16 -- Zr 6              0.45        2.11972
         O 29 -- Zr 5              0.45        2.11972
         O 30 -- Zr 8              0.45        2.11991
         O 15 -- Zr 7              0.45        2.11991
         O 43 -- Zr 2              0.45        2.12031
         O 36 -- Zr 3              0.45        2.12031
         O 44 -- Zr 3              0.45        2.12045
         O 35 -- Zr 2              0.45        2.12045
         O 37 -- Zr 4              0.44        2.12054
         O 39 -- Zr 4              0.44        2.12054
         O 18 -- Zr 8              0.45        2.12092
         O 21 -- Zr 7              0.45        2.12092
         O 20 -- Zr 5              0.45        2.12103
         O 23 -- Zr 6              0.45        2.12103
         O 56 -- Zr 1              0.44        2.12105
         O 54 -- Zr 1              0.44        2.12105
         O 28 -- Zr 5              0.44        2.12155
         O 10 -- Zr 6              0.44        2.12155
         O 11 -- Zr 7              0.44        2.12185
         O 25 -- Zr 8              0.44        2.12185
         O 4  -- La 4              0.19        2.35702
         O 8  -- La 4              0.19        2.35702
         O 6  -- La 1              0.19        2.35716
         O 1  -- La 1              0.19        2.35716
         O 1  -- La 15             0.18        2.35915
         O 6  -- La 14             0.18        2.35915
         O 4  -- La 16             0.18        2.35931
         O 8  -- La 13             0.18        2.35931
         O 2  -- La 7              0.18        2.35939
         O 7  -- La 7              0.18        2.35939
         O 4  -- La 6              0.17        2.35945
         O 8  -- La 5              0.17        2.35945
         O 3  -- La 8              0.18        2.35949
         O 5  -- La 8              0.18        2.35949
         O 6  -- La 12             0.17        2.35951
         O 1  -- La 11             0.17        2.35951
         O 3  -- La 3              0.17        2.35963
         O 5  -- La 2              0.17        2.35963
         O 2  -- La 2              0.17        2.35963
         O 7  -- La 3              0.17        2.35963
         O 5  -- La 15             0.18        2.36095
         O 3  -- La 14             0.18        2.36095
         O 2  -- La 13             0.18        2.36102
         O 7  -- La 16             0.18        2.36102
         O 7  -- La 11             0.17        2.36110
         O 2  -- La 12             0.17        2.36110
         O 3  -- La 5              0.17        2.36110
         O 5  -- La 6              0.17        2.36110
         O 1  -- La 10             0.16        2.36397
         O 6  -- La 9              0.16        2.36397
         O 8  -- La 10             0.16        2.36404
         O 4  -- La 9              0.16        2.36404
         O 49 -- La 12             0.13        2.65323
         O 47 -- La 11             0.13        2.65323
         O 50 -- La 5              0.13        2.65337
         O 48 -- La 6              0.13        2.65337
         O 46 -- La 15             0.13        2.65975
         O 51 -- La 14             0.13        2.65975
         O 42 -- La 16             0.13        2.65980
         O 33 -- La 13             0.13        2.65980
         O 55 -- La 10             0.17        2.66308
         O 53 -- La 9              0.17        2.66308
         O 38 -- La 10             0.17        2.66312
         O 40 -- La 9              0.17        2.66312
         O 24 -- La 10             0.24        2.66383
         O 19 -- La 9              0.24        2.66383
         O 22 -- La 9              0.24        2.66397
         O 17 -- La 10             0.24        2.66397
         O 27 -- La 9              0.24        2.66951
         O 9  -- La 10             0.24        2.66951
         O 26 -- La 10             0.24        2.66954
         O 12 -- La 9              0.24        2.66954
         O 49 -- La 1              0.14        2.67177
         O 47 -- La 1              0.14        2.67177
         O 48 -- La 4              0.14        2.67188
         O 50 -- La 4              0.14        2.67188
         O 18 -- La 5              0.17        2.67354
         O 21 -- La 6              0.17        2.67354
         O 20 -- La 12             0.17        2.67362
         O 23 -- La 11             0.17        2.67362
         O 42 -- La 4              0.13        2.67390
         O 33 -- La 4              0.13        2.67390
         O 46 -- La 1              0.13        2.67396
         O 51 -- La 1              0.13        2.67396
         O 30 -- La 11             0.19        2.67440
         O 15 -- La 12             0.19        2.67440
         O 16 -- La 5              0.19        2.67443
         O 29 -- La 6              0.19        2.67443
         O 41 -- La 2              0.19        2.67573
         O 34 -- La 3              0.19        2.67573
         O 45 -- La 3              0.19        2.67575
         O 52 -- La 2              0.19        2.67575
         O 35 -- La 16             0.18        2.67598
         O 44 -- La 13             0.18        2.67598
         O 36 -- La 15             0.18        2.67600
         O 43 -- La 14             0.18        2.67600
         O 35 -- La 3              0.17        2.67729
         O 44 -- La 2              0.17        2.67729
         O 43 -- La 3              0.17        2.67737
         O 36 -- La 2              0.17        2.67737
         O 39 -- La 3              0.18        2.67790
         O 37 -- La 2              0.18        2.67790
         O 54 -- La 3              0.18        2.67796
         O 56 -- La 2              0.18        2.67796
         O 11 -- La 14             0.18        2.67817
         O 25 -- La 15             0.18        2.67817
         O 28 -- La 16             0.18        2.67818
         O 10 -- La 13             0.18        2.67818
         O 21 -- La 8              0.19        2.67878
         O 18 -- La 8              0.19        2.67878
         O 20 -- La 7              0.19        2.67880
         O 23 -- La 7              0.19        2.67880
         O 24 -- La 13             0.23        2.68005
         O 19 -- La 16             0.23        2.68005
         O 31 -- La 5              0.17        2.68013
         O 14 -- La 6              0.17        2.68013
         O 17 -- La 15             0.23        2.68015
         O 22 -- La 14             0.23        2.68015
         O 13 -- La 11             0.17        2.68019
         O 32 -- La 12             0.17        2.68019
         O 9  -- La 11             0.24        2.68048
         O 27 -- La 12             0.24        2.68048
         O 12 -- La 6              0.24        2.68048
         O 26 -- La 5              0.24        2.68048
         O 39 -- La 8              0.19        2.68055
         O 37 -- La 8              0.19        2.68055
         O 54 -- La 7              0.19        2.68060
         O 56 -- La 7              0.19        2.68060
         O 28 -- La 7              0.17        2.68108
         O 10 -- La 7              0.17        2.68108
         O 11 -- La 8              0.17        2.68111
         O 25 -- La 8              0.17        2.68111
         O 45 -- La 5              0.18        2.68244
         O 52 -- La 6              0.18        2.68244
         O 34 -- La 11             0.18        2.68244
         O 41 -- La 12             0.18        2.68244
         O 14 -- La 16             0.18        2.68353
         O 31 -- La 13             0.18        2.68353
         O 13 -- La 15             0.18        2.68356
         O 32 -- La 14             0.18        2.68356
         O 15 -- La 13             0.17        2.68447
         O 30 -- La 16             0.17        2.68447
         O 16 -- La 14             0.17        2.68449
         O 29 -- La 15             0.17        2.68449
         O 38 -- La 4              0.19        2.69770
         O 40 -- La 4              0.19        2.69770
         O 55 -- La 1              0.19        2.69774
         O 53 -- La 1              0.19        2.69774
         O 26 -- O 55             -0.06        2.79504
         O 12 -- O 53             -0.06        2.79504
         O 27 -- O 40             -0.06        2.79513
         O 9  -- O 38             -0.06        2.79513
         O 44 -- O 52             -0.06        2.79524
         O 35 -- O 45             -0.06        2.79524
         O 34 -- O 43             -0.06        2.79525
         O 36 -- O 41             -0.06        2.79525
         O 19 -- O 22             -0.05        2.79730
         O 17 -- O 24             -0.05        2.79730
         O 18 -- O 21             -0.06        2.79940
         O 20 -- O 23             -0.06        2.79944
         O 9  -- O 30             -0.06        2.80072
         O 15 -- O 27             -0.06        2.80072
         O 12 -- O 29             -0.06        2.80077
         O 16 -- O 26             -0.06        2.80077
         O 39 -- O 54             -0.06        2.80111
         O 37 -- O 56             -0.06        2.80111
         O 9  -- O 24             -0.05        2.80137
         O 19 -- O 27             -0.05        2.80137
         O 17 -- O 26             -0.05        2.80148
         O 12 -- O 22             -0.05        2.80148
         O 14 -- O 52             -0.06        2.80357
         O 31 -- O 45             -0.06        2.80357
         O 32 -- O 41             -0.06        2.80362
         O 13 -- O 34             -0.06        2.80362
         O 10 -- O 54             -0.06        2.80456
         O 28 -- O 56             -0.06        2.80456
         O 11 -- O 37             -0.06        2.80458
         O 25 -- O 39             -0.06        2.80458
         O 12 -- O 21             -0.06        2.80522
         O 18 -- O 26             -0.06        2.80522
         O 20 -- O 27             -0.06        2.80532
         O 9  -- O 23             -0.06        2.80532
         O 11 -- O 22             -0.06        2.80719
         O 17 -- O 25             -0.06        2.80719
         O 10 -- O 24             -0.06        2.80719
         O 19 -- O 28             -0.06        2.80719
         O 14 -- O 30             -0.06        2.80860
         O 15 -- O 31             -0.06        2.80860
         O 13 -- O 29             -0.06        2.80862
         O 16 -- O 32             -0.06        2.80862
         O 19 -- O 35             -0.05        2.80926
         O 24 -- O 44             -0.05        2.80926
         O 17 -- O 36             -0.05        2.80930
         O 22 -- O 43             -0.05        2.80930
         O 20 -- O 49             -0.03        2.81216
         O 23 -- O 47             -0.03        2.81216
         O 18 -- O 50             -0.03        2.81220
         O 21 -- O 48             -0.03        2.81220
         O 36 -- O 46             -0.03        2.81424
         O 43 -- O 51             -0.03        2.81424
         O 33 -- O 44             -0.03        2.81429
         O 35 -- O 42             -0.03        2.81429
         O 53 -- O 55             -0.06        2.81550
         O 38 -- O 40             -0.06        2.81553
         O 38 -- O 55             -0.03        2.81642
         O 40 -- O 53             -0.03        2.81642
         O 41 -- O 49             -0.03        2.81721
         O 34 -- O 47             -0.03        2.81721
         O 45 -- O 50             -0.03        2.81725
         O 48 -- O 52             -0.03        2.81725
         O 42 -- O 50             -0.03        2.82154
         O 33 -- O 48             -0.03        2.82154
         O 46 -- O 49             -0.03        2.82158
         O 47 -- O 51             -0.03        2.82158
         O 47 -- O 49             -0.03        2.82315
         O 48 -- O 50             -0.03        2.82317
         O 16 -- O 51             -0.03        2.82406
         O 29 -- O 46             -0.03        2.82406
         O 30 -- O 42             -0.03        2.82406
         O 15 -- O 33             -0.03        2.82406
         O 13 -- O 30             -0.03        2.82437
         O 15 -- O 32             -0.03        2.82437
         O 16 -- O 31             -0.03        2.82438
         O 14 -- O 29             -0.03        2.82438
         O 37 -- O 41             -0.03        2.82644
         O 34 -- O 39             -0.03        2.82644
         O 45 -- O 54             -0.03        2.82645
         O 52 -- O 56             -0.03        2.82645
         O 13 -- O 25             -0.03        2.82688
         O 11 -- O 32             -0.03        2.82688
         O 10 -- O 31             -0.03        2.82694
         O 14 -- O 28             -0.03        2.82694
         O 36 -- O 44             -0.03        2.82966
         O 35 -- O 43             -0.03        2.82966
         O 54 -- O 56             -0.03        2.83108
         O 37 -- O 39             -0.03        2.83110
         O 33 -- O 40             -0.03        2.83186
         O 38 -- O 42             -0.03        2.83186
         O 51 -- O 55             -0.03        2.83192
         O 46 -- O 53             -0.03        2.83192
         O 20 -- O 28             -0.03        2.83234
         O 10 -- O 23             -0.03        2.83234
         O 11 -- O 21             -0.03        2.83237
         O 18 -- O 25             -0.03        2.83237
============================================================
 

Writing analysis data to 013.castep_bin

Writing model to 013.check
 
 A BibTeX formatted list of references used in this run has been written to 
 013.bib
 
Initialisation time =     54.76 s
Calculation time    =  33519.90 s
Finalisation time   =     31.02 s
Total time          =  33605.68 s
Peak Memory Use     = 2840108 kB
  
Overall parallel efficiency rating: Good (77%)                                  
  
Data was distributed by:-
G-vector (4-way); efficiency rating: Good (78%)                                 
k-point (14-way); efficiency rating: Excellent (97%)                            
