 +-------------------------------------------------+
 |                                                 |
 |      CCC   AA    SSS  TTTTT  EEEEE  PPPP        |
 |     C     A  A  S       T    E      P   P       |
 |     C     AAAA   SS     T    EEE    PPPP        |
 |     C     A  A     S    T    E      P           |
 |      CCC  A  A  SSS     T    EEEEE  P           |
 |                                                 |
 +-------------------------------------------------+
 |                                                 |
 | Welcome to Academic Release CASTEP version 16.11|          
 | Ab Initio Total Energy Program                  |
 |                                                 |
 | Authors:                                        |
 | M. Segall, M. Probert, C. Pickard, P. Hasnip,   |
 | S. Clark, K. Refson, J. R. Yates, M. Payne      |
 |                                                 |
 | Contributors:                                   |
 | P. Lindan, P. Haynes, J. White, V. Milman,      |
 | N. Govind, M. Gibson, P. Tulip, V. Cocula,      |
 | B. Montanari, D. Quigley, M. Glover,            |
 | L. Bernasconi, A. Perlov, M. Plummer,           |
 | E. McNellis, J. Meyer, J. Gale, D. Jochym       |
 | J. Aarons, B. Walker, R. Gillen, D. Jones       |
 | T. Green, I. J. Bush, C. J. Armstrong,          |
 | E. J. Higgins, E. L. Brown, M. S. McFly         |
 |                                                 |
 | Copyright (c) 2000 - 2015                       |
 |                                                 |
 |     Distributed under the terms of an           |
 |     Agreement between the United Kingdom        |
 |     Car-Parrinello (UKCP) Consortium,           |
 |     Daresbury Laboratory and Accelrys, Inc.     |
 |                                                 |
 | Please cite                                     |
 |                                                 |
 |     "First principles methods using CASTEP"     |
 |                                                 |
 |         Zeitschrift fuer Kristallographie       |
 |           220(5-6) pp. 567-570 (2005)           |
 |                                                 |
 | S. J. Clark, M. D. Segall, C. J. Pickard,       |
 | P. J. Hasnip, M. J. Probert, K. Refson,         |
 | M. C. Payne                                     |
 |                                                 |
 |       in all publications arising from          |
 |              your use of CASTEP                 |
 |                                                 |
 +-------------------------------------------------+
 
 
 Compiled for linux_x86_64_ifort16 on Sat, 23 Jul 2016 23:44:54 +0100
 from code version 
 203e84763863+ Castep161_branch Fri, 04 Mar 2016 19:21:07 +0000
 Compiler: Intel Fortran 16.0.3.210; Optimisation: fast
 MATHLIBS: Intel MKL(11.3.3) (LAPACK version 3.6.0)
 FFT Lib : mkl
 Fundamental constants values: CODATA 2010
 
 Run started: Wed, 25 Apr 2018 16:23:18 +0100
 +-------------------------------------------------+
 |                                                 |
 |           N   N    M   M    RRRR                |
 |           NN  N    MM MM    R   R               |
 |           N N N    M M M    RRRR                |
 |           N  NN    M   M    R  R                |
 |           N   N    M   M    R   R               |
 |                                                 |
 +-------------------------------------------------+
 |                                                 |
 | Welcome to Materials Studio CASTEP-NMR          |
 |                                                 |
 | Authors:                                        |
 | J.R. Yates, C.J. Pickard, F. Mauri              |
 |                                                 |
 | Contributors:                                   |
 | T.F.G. Green, S.A. Joyce                        |
 |                                                 |
 | Copyright (c) 2004 - 2015                       |
 |                                                 |
 | Please cite the appropriate publications in all |
 | work arising from your use of CASTEP NMR.       |
 |                                                 |
 | For NMR Shielding Tensors cite:                 |
 |    "All-electron magnetic response with         |
 |    pseudopotentials: NMR chemical shifts",      |
 |    C. J. Pickard, F. Mauri;                     |
 |    Physical Review B63 245101 (2001), and       |
 |                                                 |
 |    "Calculation of NMR Chemical Shifts          |
 |    for extended systems using                   |
 |    Ultrasoft Pseudopotentials",                 |
 |    J. R. Yates, C. J. Pickard and F. Mauri      |
 |    Physical Review B76 024401 (2007)            |
 |                                                 |
 | For Electric Field Gradients cite:              |
 |   "Accurate First Principles Prediction of 17O  |
 |    NMR Parameters in SiO2: Assignment of the    |
 |    Zeolite Ferrierite Spectrum"                 |
 |    M. Profeta, F. Mauri and C. J. Pickard       |
 |    J. Amer. Chem. Soc. 125 541 (2003)           |
 |                                                 |
 | For Spin-Spin (J) Couplings cite:               |
 |   "A first principles theory of NMR J-coupling  |
 |   in solid-state systems"                       |
 |   S.A. Joyce, J.R. Yates, C.J. Pickard, F. Mauri|
 |   J. Chem. Phys. 127 204107 (2007)              |
 |                                                 |
 |   "Relativistic NMR J-coupling with ultrasoft   |
 |   pseudopotentials and the zeroth-order regular |
 |   approximation"                                |
 |   T.F.G. Green and J.R. Yates                   |
 |   J. Chem. Phys. 140 234106 (2014)              |
 |                                                 |
 +-------------------------------------------------+
 
 
 Atomic calculation performed for O: 1s2 2s2 2p4
 
 Converged in 44 iterations to an ae energy of -2040.855 eV
 
 
 Atomic calculation performed for O: 1s2 2s2 2p4
 
 Exceeded max iterations: converged to 0.000000062 eV
 
   ============================================================                
   | Pseudopotential Report - Date of generation 25-04-2018   |                
   ------------------------------------------------------------                
   | Element: O Ionic charge:  6.00 Level of theory: PBE      |                
   | Atomic Solver: ZORA (scalar)                             |                
   |                                                          |                
   |               Reference Electronic Structure             |                
   |         Orbital         Occupation         Energy        |                
   |            2s              2.000           -0.881        |                
   |            2p              4.000           -0.332        |                
   |                                                          |                
   |                 Pseudopotential Definition               |                
   |        Beta     l      e      Rc     scheme   norm       |                
   |          1      0   -0.881   1.100     qc      0         |                
   |          2      0    0.250   1.100     qc      0         |                
   |          3      1   -0.332   1.100     qc      0         |                
   |          4      1    0.250   1.100     qc      0         |                
   |         loc     2    0.000   1.100     pn      0         |                
   |                                                          |                
   | Augmentation charge Rinner = 0.769                       |                
   | Partial core correction Rc = 0.769                       |                
   ------------------------------------------------------------                
   | "2|1.1|15|18|20|20:21(qc=7)"                             |                
   ------------------------------------------------------------                
   |      Author: Chris J. Pickard, Cambridge University      |                
   ============================================================                
 
 Atomic calculation performed for Zr: 1s2 2s2 2p6 3s2 3p6 3d10 4s2 4p6 4d2 5s2
 
 Converged in 53 iterations to an ae energy of -97719.888 eV
 
 
 Atomic calculation performed for Zr: 1s2 2s2 2p6 3s2 3p6 3d10 4s2 4p6 4d2 5s2
 
 Exceeded max iterations: converged to 0.000000970 eV
 
 Warning: ion_atom_descreen_psp: negative charge density encountered
   ============================================================                
   | Pseudopotential Report - Date of generation 25-04-2018   |                
   ------------------------------------------------------------                
   | Element: Zr Ionic charge: 12.00 Level of theory: PBE     |                
   | Atomic Solver: ZORA (scalar)                             |                
   |                                                          |                
   |               Reference Electronic Structure             |                
   |         Orbital         Occupation         Energy        |                
   |            4s              2.000           -2.003        |                
   |            4p              6.000           -1.193        |                
   |            5s              2.000           -0.163        |                
   |            4d              2.000           -0.132        |                
   |                                                          |                
   |                 Pseudopotential Definition               |                
   |        Beta     l      e      Rc     scheme   norm       |                
   |          1      0   -2.003   2.105     qc      0         |                
   |          2      0   -0.163   2.105     qc      0         |                
   |          3      0    0.250   2.105     qc      0         |                
   |          4      1   -1.193   2.105     qc      0         |                
   |          5      1    0.250   2.105     qc      0         |                
   |          6      2   -0.132   2.105     qc      0         |                
   |          7      2    0.250   2.105     qc      0         |                
   |         loc     3    0.000   2.105     pn      0         |                
   |                                                          |                
   | Augmentation charge Rinner = 1.471                       |                
   | Partial core correction Rc = 1.471                       |                
   ------------------------------------------------------------                
   | "3|2.1|7|8|9|40U:50:41:42"                               |                
   ------------------------------------------------------------                
   |      Author: Chris J. Pickard, Cambridge University      |                
   ============================================================                
 
 Atomic calculation performed for Sn:
 1s2 2s2 2p6 3s2 3p6 3d10 4s2 4p6 4d10 5s2 5p2
 
 Converged in 58 iterations to an ae energy of -167539.320 eV
 
 
 Atomic calculation performed for Sn:
 1s2 2s2 2p6 3s2 3p6 3d10 4s2 4p6 4d10 5s2 5p2
 
 Exceeded max iterations: converged to 0.000001154 eV
 
   ============================================================                
   | Pseudopotential Report - Date of generation 25-04-2018   |                
   ------------------------------------------------------------                
   | Element: Sn Ionic charge: 14.00 Level of theory: PBE     |                
   | Atomic Solver: ZORA (scalar)                             |                
   |                                                          |                
   |               Reference Electronic Structure             |                
   |         Orbital         Occupation         Energy        |                
   |            4d             10.000           -0.950        |                
   |            5s              2.000           -0.388        |                
   |            5p              2.000           -0.136        |                
   |                                                          |                
   |                 Pseudopotential Definition               |                
   |        Beta     l      e      Rc     scheme   norm       |                
   |          1      0   -0.388   2.199     qc      0         |                
   |          2      0    0.250   2.199     qc      0         |                
   |          3      1   -0.136   2.199     qc      0         |                
   |          4      1    0.250   2.199     qc      0         |                
   |          5      2   -0.950   2.199     qc      0         |                
   |          6      2    0.250   2.199     qc      0         |                
   |         loc     3    0.000   2.199     pn      0         |                
   |                                                          |                
   | Augmentation charge Rinner = 1.537                       |                
   | Partial core correction Rc = 1.537                       |                
   ------------------------------------------------------------                
   | "3|2.2|7|8|9|50:51:42"                                   |                
   ------------------------------------------------------------                
   |      Author: Chris J. Pickard, Cambridge University      |                
   ============================================================                
 
 Atomic calculation performed for La:
 1s2 2s2 2p6 3s2 3p6 3d10 4s2 4p6 4d10 5s2 5p6 5d1 6s2
 
 Converged in 56 iterations to an ae energy of -230121.495 eV
 
 
 Atomic calculation performed for La:
 1s2 2s2 2p6 3s2 3p6 3d10 4s2 4p6 4d10 5s2 5p6 5d1 6s2
 
 Exceeded max iterations: converged to 0.000000907 eV
 
 Warning: ion_atom_descreen_psp: negative charge density encountered
   ============================================================                
   | Pseudopotential Report - Date of generation 25-04-2018   |                
   ------------------------------------------------------------                
   | Element: La Ionic charge: 11.00 Level of theory: PBE     |                
   | Atomic Solver: ZORA (scalar)                             |                
   |                                                          |                
   |               Reference Electronic Structure             |                
   |         Orbital         Occupation         Energy        |                
   |            5s              2.000           -1.430        |                
   |            5p              6.000           -0.823        |                
   |            6s              2.000           -0.135        |                
   |            5d              1.000           -0.114        |                
   |                                                          |                
   |                 Pseudopotential Definition               |                
   |        Beta     l      e      Rc     scheme   norm       |                
   |          1      0   -1.430   2.298     qc      0         |                
   |          2      0   -0.135   2.298     qc      0         |                
   |          3      0    0.250   2.298     qc      0         |                
   |          4      1   -0.823   2.298     qc      0         |                
   |          5      1    0.250   2.298     qc      0         |                
   |          6      2   -0.114   2.298     qc      0         |                
   |          7      2    0.250   2.298     qc      0         |                
   |         loc     2    0.000   2.298     pn      0         |                
   |                                                          |                
   | Augmentation charge Rinner = 1.606                       |                
   | Partial core correction Rc = 1.606                       |                
   ------------------------------------------------------------                
   | "2|2.3|5|6|7|50U:60:51:52(qc=4.5)"                       |                
   ------------------------------------------------------------                
   |      Author: Chris J. Pickard, Cambridge University      |                
   ============================================================                
 
 Pseudo atomic calculation performed for O 2s2 2p4
 
 Converged in 39 iterations to a total energy of -432.6554 eV
 
 
 Pseudo atomic calculation performed for Zr 4s2 4p6 4d2 5s2
 
 Converged in 38 iterations to a total energy of -1285.4931 eV
 
 
 Pseudo atomic calculation performed for Sn 4d10 5s2 5p2
 
 Converged in 48 iterations to a total energy of -2044.5414 eV
 
 
 Pseudo atomic calculation performed for La 5s2 5p6 5d1 6s2
 
 Converged in 34 iterations to a total energy of -968.0372 eV
 
 Calculation parallelised over 56 processes.
 Data is distributed by G-vector(4-way) and k-point(14-way)

 ************************************ Title ************************************
 nmr testing

 ***************************** General Parameters ******************************
  
 output verbosity                               : normal  (1)
 write checkpoint data to                       : 024.check
 type of calculation                            : Magnetic Resonance
 stress calculation                             : on
 density difference calculation                 : off
 electron localisation func (ELF) calculation   : off
 Hirshfeld analysis                             : off
 unlimited duration calculation
 timing information                             : on
 memory usage estimate                          : on
 write final potential to formatted file        : off
 write final density to formatted file          : off
 write structure in CIF formatted file          : on
 write structure in CELL formatted file         : on
 write BibTeX reference list                    : on
 write OTFG pseudopotential files               : on
 checkpoint writing                             : both castep_bin and check files
  
 output         length unit                     : A
 output           mass unit                     : amu
 output           time unit                     : ps
 output         charge unit                     : e
 output           spin unit                     : hbar/2
 output         energy unit                     : eV
 output          force unit                     : eV/A
 output       velocity unit                     : A/ps
 output       pressure unit                     : GPa
 output     inv_length unit                     : 1/A
 output      frequency unit                     : cm-1
 output force constant unit                     : eV/A**2
 output         volume unit                     : A**3
 output   IR intensity unit                     : (D/A)**2/amu
 output         dipole unit                     : D
 output         efield unit                     : eV/A/e
 output        entropy unit                     : J/mol/K
  
 wavefunctions paging                           : none
 random number generator seed                   : randomised (162319662)
 data distribution                              : optimal for this architecture
 optimization strategy                          : maximize speed(+++)

 *********************** Exchange-Correlation Parameters ***********************
  
 using functional                               : Perdew Burke Ernzerhof
 relativistic treatment                         : ZORA
 DFT+D: Semi-empirical dispersion correction    : off

 ************************* Pseudopotential Parameters **************************
  
 pseudopotential representation                 : reciprocal space
 <beta|phi> representation                      : reciprocal space
 spin-orbit coupling                            : off

 **************************** Basis Set Parameters *****************************
  
 plane wave basis set cut-off                   :   816.3416   eV
 size of standard grid                          :     1.7500
 size of   fine   gmax                          :    25.6161   1/A
 finite basis set correction                    : automatic
 number of sample energies                      :          3
           sample  spacing                      :     5.0000   eV

 **************************** Electronic Parameters ****************************
  
 number of  electrons                           :  720.0    
 net charge of system                           :  0.000    
 treating system as non-spin-polarized
 number of bands                                :        432

 ********************* Electronic Minimization Parameters **********************
  
 Method: Treating system as metallic with density mixing treatment of electrons,
         and number of  SD  steps               :          1
         and number of  CG  steps               :          4
  
 total energy / atom convergence tol.           : 0.1000E-08   eV
 eigen-energy convergence tolerance             : 0.2444E-09   eV
 max force / atom convergence tol.              : ignored
 convergence tolerance window                   :          3   cycles
 max. number of SCF cycles                      :         50
 number of fixed-spin iterations                :         10
 smearing scheme                                : Gaussian
 smearing width                                 : 0.2000       eV
 Fermi energy convergence tolerance             : 0.2721E-13   eV
 periodic dipole correction                     : NONE

 ************************** Density Mixing Parameters **************************
  
 density-mixing scheme                          : Broyden
 max. length of mixing history                  :         20
 charge density mixing amplitude                : 0.8000    
 cut-off energy for mixing                      :  816.3       eV

 *********************** Population Analysis Parameters ************************
  
 Population analysis with cutoff                :  3.000       A

 ************************ Magnetic Resonance Parameters ************************
  
 Magnetic Resonance Property                    : Chemical Shielding + EFG
 Position Operator Method                       : crystal
 max. number of MagRes CG steps                 :        250
 convergence tolerance window                   :          2   cycles
 energy convergence tolerance                   : 0.1000E-11   eV
 band convergence tolerance                     : 0.1000E-08   eV

 *******************************************************************************
  
 
                           -------------------------------
                                      Unit Cell
                           -------------------------------
        Real Lattice(A)                      Reciprocal Lattice(1/A)
  10.8992331   0.0093578  -0.0000229        0.5764800  -0.0004949   0.0000012
   0.0093599  10.9029580  -0.0000356       -0.0004948   0.5762831   0.0000019
  -0.0000228  -0.0000355  10.9011107        0.0000012   0.0000019   0.5763803
 
                       Lattice parameters(A)       Cell Angles
                    a =   10.899237          alpha =   90.000373
                    b =   10.902962          beta  =   90.000241
                    c =   10.901111          gamma =   89.901621
 
                       Current cell volume = 1295.420336       A**3
 
                           -------------------------------
                                     Cell Contents
                           -------------------------------
                         Total number of ions in cell =   88
                      Total number of species in cell =    4
                        Max number of any one species =   56
 
            xxxxxxxxxxxxxxxxxxxxxxxxxxxxxxxxxxxxxxxxxxxxxxxxxxxxxxxxxxxx
            x  Element    Atom        Fractional coordinates of atoms  x
            x            Number           u          v          w      x
            x----------------------------------------------------------x
            x  O            1         0.125037   0.124806   0.124784   x 
            x  O            2         0.624953   0.125199   0.624779   x 
            x  O            3         0.125235   0.625037   0.625103   x 
            x  O            4         0.624761   0.624948   0.125101   x 
            x  O            5         0.875048   0.374522   0.375173   x 
            x  O            6         0.874929   0.875446   0.875179   x 
            x  O            7         0.375012   0.374878   0.874833   x 
            x  O            8         0.374960   0.875103   0.374834   x 
            x  O            9         0.420561   0.126500   0.124789   x 
            x  O           10         0.329420   0.123495   0.624783   x 
            x  O           11         0.830842   0.625045   0.624972   x 
            x  O           12         0.919152   0.624935   0.124968   x 
            x  O           13         0.125182   0.419431   0.124576   x 
            x  O           14         0.623730   0.328620   0.125072   x 
            x  O           15         0.624794   0.830564   0.624581   x 
            x  O           16         0.126261   0.921381   0.625072   x 
            x  O           17         0.125128   0.124710   0.419671   x 
            x  O           18         0.124441   0.624662   0.330111   x 
            x  O           19         0.625546   0.625320   0.830114   x 
            x  O           20         0.624871   0.125305   0.919682   x 
            x  O           21         0.875214   0.668863   0.375256   x 
            x  O           22         0.874768   0.581098   0.875263   x 
            x  O           23         0.374315   0.079236   0.874852   x 
            x  O           24         0.375660   0.170749   0.374856   x 
            x  O           25         0.170556   0.375808   0.374145   x 
            x  O           26         0.078986   0.873421   0.374917   x 
            x  O           27         0.579422   0.874168   0.874143   x 
            x  O           28         0.670991   0.376585   0.874910   x 
            x  O           29         0.875442   0.376160   0.079439   x 
            x  O           30         0.374061   0.374986   0.169554   x 
            x  O           31         0.375916   0.874998   0.669552   x 
            x  O           32         0.874562   0.873851   0.579427   x 
            x  O           33         0.670880   0.874961   0.376704   x 
            x  O           34         0.079100   0.375031   0.876713   x 
            x  O           35         0.376452   0.670616   0.874861   x 
            x  O           36         0.874485   0.080569   0.375471   x 
            x  O           37         0.874364   0.376286   0.670891   x 
            x  O           38         0.374565   0.875343   0.080546   x 
            x  O           39         0.124374   0.329913   0.624658   x 
            x  O           40         0.625623   0.920082   0.124665   x 
            x  O           41         0.919440   0.125118   0.625025   x 
            x  O           42         0.329829   0.623742   0.124863   x 
            x  O           43         0.124108   0.624981   0.920355   x 
            x  O           44         0.623819   0.125254   0.328823   x 
            x  O           45         0.420159   0.626234   0.624860   x 
            x  O           46         0.830566   0.124894   0.125024   x 
            x  O           47         0.126170   0.124741   0.828823   x 
            x  O           48         0.625869   0.624992   0.420358   x 
            x  O           49         0.875514   0.169427   0.875466   x 
            x  O           50         0.373528   0.579356   0.374863   x 
            x  O           51         0.170750   0.875396   0.874591   x 
            x  O           52         0.579224   0.374584   0.374590   x 
            x  O           53         0.875623   0.873695   0.170886   x 
            x  O           54         0.375410   0.374636   0.580546   x 
            x  O           55         0.124249   0.829805   0.125233   x 
            x  O           56         0.625731   0.420186   0.625232   x 
            x  Zr           1         0.499988   0.499933   0.500236   x 
            x  Zr           2         0.249978   0.749984   0.000256   x 
            x  Zr           3         0.750553   0.999947   0.250931   x 
            x  Zr           4         0.999690   0.250128   0.750936   x 
            x  Zr           5         0.750522   0.250604   0.999767   x 
            x  Zr           6         0.499930  -0.000053   0.999847   x 
            x  Zr           7         0.250206   0.250067   0.499827   x 
            x  Zr           8         0.999719   0.999832   0.499809   x 
            x  Sn           1         0.251038   0.999304   0.750317   x 
            x  Sn           2         0.000228   0.749088   0.249631   x 
            x  Sn           3         0.749759   0.500910   0.749611   x 
            x  Sn           4         0.749741   0.749329   0.500573   x 
            x  Sn           5         0.249111   0.500254   0.249235   x 
            x  Sn           6         0.000255   0.500687   0.000572   x 
            x  Sn           7         0.498955   0.250666   0.250303   x 
            x  Sn           8         0.500874   0.749739   0.749229   x 
            x  La           1         0.999721   0.000246   0.000094   x 
            x  La           2         0.750254   0.249739   0.500102   x 
            x  La           3         0.250098   0.499660   0.749616   x 
            x  La           4         0.499893   0.750343   0.249617   x 
            x  La           5         0.250079   0.749924   0.499896   x 
            x  La           6         0.749670   0.499821   0.250384   x 
            x  La           7         0.500286   0.250255   0.749868   x 
            x  La           8         0.000280   0.499341   0.500435   x 
            x  La           9         0.749694   0.750659   0.000436   x 
            x  La          10         0.249706   0.999709   0.249850   x 
            x  La          11         0.249914   0.249768   0.999663   x 
            x  La          12         0.750235   0.000795   0.750253   x 
            x  La          13         0.500084   0.000205   0.499659   x 
            x  La          14         0.000302   0.750185   0.750365   x 
            x  La          15         0.999750   0.249192   0.250248   x 
            x  La          16         0.499898   0.500069   0.999898   x 
            xxxxxxxxxxxxxxxxxxxxxxxxxxxxxxxxxxxxxxxxxxxxxxxxxxxxxxxxxxxx
 
 
                         No user defined ionic velocities
 
                           -------------------------------
                                   Details of Species
                           -------------------------------
 
                               Mass of species in AMU
                                    O   15.9994000
                                    Zr   91.2240000
                                    Sn  118.7100000
                                    La  138.9055000
 
                          Electric Quadrupole Moment (Barn)
                                    O   -0.0255800 Isotope 17
                                    Zr   -0.1760000 Isotope 91
                                    Sn    1.0000000 No Isotope Defined
                                    La    0.2000000 Isotope139
 
                          Files used for pseudopotentials:
                                    O 2|1.1|15|18|20|20:21(qc=7)
                                    Zr 3|2.1|7|8|9|40U:50:41:42
                                    Sn 3|2.2|7|8|9|50:51:42
                                    La 2|2.3|5|6|7|50U:60:51:52(qc=4.5)
 
                           -------------------------------
                              k-Points For BZ Sampling
                           -------------------------------
                       MP grid size for SCF calculation is  3  3  3
                            with an offset of   0.000  0.000  0.000
                       Number of kpoints used =            14
 
                           -------------------------------
                               Symmetry and Constraints
                           -------------------------------
 
                      Maximum deviation from symmetry =  0.00000         ANG
 
         There are no symmetry operations specified or generated for this cell
                      Number of ionic constraints     =           3
                      Point group of crystal =     1: C1, 1, 1
                      Space group of crystal =     1: P1, P 1
 
 
                         Centre of mass is constrained
             Set iprint > 1 for details of linear ionic constraints
 
                         Number of cell constraints= 0
                         Cell constraints are:  1 2 3 4 5 6
 
                         External pressure/stress (GPa)
                          0.00000   0.00000   0.00000
                                    0.00000   0.00000
                                              0.00000
  
+---------------- MEMORY AND SCRATCH DISK ESTIMATES PER PROCESS --------------+
|                                                     Memory          Disk    |
| Baseline code, static data and system overhead      322.0 MB         0.0 MB |
| BLAS internal memory storage                          0.0 MB         0.0 MB |
| Model and support data                             1319.1 MB         0.0 MB |
| Electronic energy minimisation requirements         381.7 MB         0.0 MB |
| Force calculation requirements                       24.1 MB         0.0 MB |
| Stress calculation requirements                      28.3 MB         0.0 MB |
|                                               ----------------------------- |
| Approx. total storage required per process         2022.9 MB         0.0 MB |
|                                                                             |
| Requirements will fluctuate during execution and may exceed these estimates |
+-----------------------------------------------------------------------------+
Calculating finite basis set correction with  3 cut-off energies.
Calculating total energy with cut-off of  806.342eV.
------------------------------------------------------------------------ <-- SCF
SCF loop      Energy           Fermi           Energy gain       Timer   <-- SCF
                               energy          per atom          (sec)   <-- SCF
------------------------------------------------------------------------ <-- SCF
Initial  -5.62608540E+004  0.00000000E+000                        74.80  <-- SCF
      1  -6.45206812E+004  7.56486800E+000   9.38616731E+001     218.46  <-- SCF
      2  -6.70870048E+004  6.80489840E+000   2.91627676E+001     312.45  <-- SCF
      3  -6.71704306E+004  6.49882186E+000   9.48020887E-001     417.95  <-- SCF
      4  -6.71641813E+004  7.62918737E+000  -7.10145265E-002     547.67  <-- SCF
      5  -6.70611876E+004  7.03898933E+000  -1.17038311E+000     679.17  <-- SCF
      6  -6.70625837E+004  6.93924695E+000   1.58645357E-002     838.67  <-- SCF
      7  -6.70622694E+004  7.01560367E+000  -3.57080673E-003     976.62  <-- SCF
      8  -6.70623499E+004  7.02120611E+000   9.14386032E-004    1157.55  <-- SCF
      9  -6.70623721E+004  7.02362827E+000   2.52407890E-004    1306.54  <-- SCF
     10  -6.70623721E+004  7.02215367E+000  -8.12411249E-007    1446.95  <-- SCF
     11  -6.70623718E+004  7.02406213E+000  -2.62086689E-006    1587.76  <-- SCF
     12  -6.70623722E+004  7.02455456E+000   3.70439425E-006    1741.37  <-- SCF
     13  -6.70623722E+004  7.02446824E+000   3.41318213E-007    1878.15  <-- SCF
     14  -6.70623722E+004  7.02442297E+000  -1.72852452E-007    2014.64  <-- SCF
     15  -6.70623722E+004  7.02423297E+000  -5.28619073E-008    2157.22  <-- SCF
     16  -6.70623722E+004  7.02412841E+000  -5.06179395E-009    2283.05  <-- SCF
     17  -6.70623722E+004  7.02407294E+000  -2.52281149E-009    2400.64  <-- SCF
     18  -6.70623722E+004  7.02402362E+000  -3.26512919E-010    2501.44  <-- SCF
     19  -6.70623722E+004  7.02399451E+000   2.73219036E-010    2595.85  <-- SCF
------------------------------------------------------------------------ <-- SCF
 
Final energy, E             =  -67062.37216072     eV
Final free energy (E-TS)    =  -67062.37216072     eV
(energies not corrected for finite basis set)
 
NB est. 0K energy (E-0.5TS)      =  -67062.37216072     eV
 
Calculating total energy with cut-off of  811.342eV.
------------------------------------------------------------------------ <-- SCF
SCF loop      Energy           Fermi           Energy gain       Timer   <-- SCF
                               energy          per atom          (sec)   <-- SCF
------------------------------------------------------------------------ <-- SCF
Initial  -6.70623722E+004  0.00000000E+000                      2631.52  <-- SCF
      1  -6.70623746E+004  7.02398945E+000   2.82270655E-005    2746.77  <-- SCF
      2  -6.70623746E+004  7.02398945E+000   2.04035420E-010    2835.71  <-- SCF
      3  -6.70623746E+004  7.02398470E+000   1.65727102E-008    2925.47  <-- SCF
      4  -6.70623746E+004  7.02399201E+000   5.33782533E-010    3015.85  <-- SCF
      5  -6.70623746E+004  7.02399055E+000  -1.20087008E-010    3104.90  <-- SCF
------------------------------------------------------------------------ <-- SCF
 
Final energy, E             =  -67062.37464621     eV
Final free energy (E-TS)    =  -67062.37464621     eV
(energies not corrected for finite basis set)
 
NB est. 0K energy (E-0.5TS)      =  -67062.37464621     eV
 
Calculating total energy with cut-off of  816.342eV.
------------------------------------------------------------------------ <-- SCF
SCF loop      Energy           Fermi           Energy gain       Timer   <-- SCF
                               energy          per atom          (sec)   <-- SCF
------------------------------------------------------------------------ <-- SCF
Initial  -6.70623746E+004  0.00000000E+000                      3140.67  <-- SCF
      1  -6.70623776E+004  7.02399257E+000   3.34881861E-005    3255.15  <-- SCF
      2  -6.70623776E+004  7.02399257E+000   2.04597889E-010    3344.63  <-- SCF
      3  -6.70623776E+004  7.02398699E+000   2.06944788E-008    3435.22  <-- SCF
      4  -6.70623776E+004  7.02399034E+000   6.62728418E-010    3524.58  <-- SCF
      5  -6.70623776E+004  7.02398757E+000  -1.88426921E-011    3613.56  <-- SCF
------------------------------------------------------------------------ <-- SCF
 
Final energy, E             =  -67062.37759507     eV
Final free energy (E-TS)    =  -67062.37759507     eV
(energies not corrected for finite basis set)
 
NB est. 0K energy (E-0.5TS)      =  -67062.37759507     eV
 
 For future reference: finite basis dEtot/dlog(Ecut) =      -0.439226eV
 Total energy corrected for finite basis set =  -67062.377597 eV
 
  =====================================================================
  +       Calculation of Nuclear Magnetic Resonance Parameters        +
  + ================================================================= +
 
  Starting Calculation of Electric Field Gradient Tensors         |<-- EFG
  +---------------- MEMORY AND SCRATCH DISK ESTIMATES PER PROCESS --------------+
  |                                                     Memory          Disk    |
  | Model and support data                             1316.9 MB         0.0 MB |
  | NMR EFG calculation requirements                    367.4 MB         0.0 MB |
  |                                               ----------------------------- |
  | Approx. total storage required per process         1684.3 MB         0.0 MB |
  |                                                                             |
  | Requirements will fluctuate during execution and may exceed these estimates |
  +-----------------------------------------------------------------------------+
  Total Time for EFG Tensors                     413.94 sec       |<-- EFG
 
  Starting Calculation of Chemical Shielding Tensors              |<-- NMR
  +---------------- MEMORY AND SCRATCH DISK ESTIMATES PER PROCESS --------------+
  |                                                     Memory          Disk    |
  | Model and support data                             1316.9 MB         0.0 MB |
  | NMR chemical shift calculation requirements         564.3 MB         0.0 MB |
  |                                               ----------------------------- |
  | Approx. total storage required per process         1881.1 MB         0.0 MB |
  |                                                                             |
  | Requirements will fluctuate during execution and may exceed these estimates |
  +-----------------------------------------------------------------------------+
  Starting k-point:   1 of   1                                    |<-- NMR
  Total Time for step 1 of 6:                   3291.01 sec       |<-- NMR
  Total Time for step 2 of 6:                   3314.08 sec       |<-- NMR
  Total Time for step 3 of 6:                   3279.17 sec       |<-- NMR
  Total Time for step 4 of 6:                   3303.63 sec       |<-- NMR
  Total Time for step 5 of 6:                   3312.84 sec       |<-- NMR
  Total Time for step 6 of 6:                   3318.10 sec       |<-- NMR
  Total Time for Chemical Shielding Tensors    29250.40 sec       |<-- NMR
 
  ========================================================================
  |           Chemical Shielding and Electric Field Gradient Tensors     |
  |----------------------------------------------------------------------|
  |     Nucleus                Shielding tensor             EFG Tensor   |
  |  Species       Ion    Iso(ppm)   Aniso(ppm)  Asym    Cq(MHz)    Eta  |
  |    O           1     -316.97     -10.31      0.85   4.930E-02   0.51 |
  |    O           2     -316.99     -10.29      0.87   4.925E-02   0.63 |
  |    O           3     -317.44      15.47      0.55  -3.927E-02   0.78 |
  |    O           4     -317.45      15.26      0.57  -3.836E-02   0.86 |
  |    O           5     -318.93     -11.68      0.39  -5.962E-02   0.80 |
  |    O           6     -318.96     -11.20      0.41  -5.811E-02   0.83 |
  |    O           7     -317.56     -15.76      0.97   4.664E-02   0.87 |
  |    O           8     -317.59     -15.75      0.96   4.720E-02   0.90 |
  |    O           9      -82.70      84.69      0.12  -3.179E+00   0.08 |
  |    O          10      -82.98      85.49      0.12  -3.174E+00   0.08 |
  |    O          11       -9.42      56.89      0.73   3.880E+00   0.87 |
  |    O          12       -9.28      56.76      0.73   3.882E+00   0.88 |
  |    O          13      -12.24      59.84      0.46   3.902E+00   0.83 |
  |    O          14      -81.84      86.63      0.25  -3.124E+00   0.07 |
  |    O          15      -12.34      59.87      0.46   3.901E+00   0.83 |
  |    O          16      -81.86      86.94      0.25  -3.127E+00   0.07 |
  |    O          17     -161.08     145.98      0.83   1.043E+00   0.74 |
  |    O          18      -10.98      60.90      0.36   3.937E+00   0.85 |
  |    O          19      -10.95      60.88      0.37   3.937E+00   0.85 |
  |    O          20     -161.19     144.47      0.83   1.036E+00   0.75 |
  |    O          21       -5.76      65.62      0.95   3.786E+00   0.92 |
  |    O          22       -5.37      65.74      0.94   3.789E+00   0.92 |
  |    O          23      -86.31      96.02      0.27  -3.203E+00   0.11 |
  |    O          24      -86.63      97.62      0.26  -3.200E+00   0.11 |
  |    O          25      -86.94      80.02      0.06  -3.242E+00   0.09 |
  |    O          26      -87.55      86.78      0.14  -3.154E+00   0.10 |
  |    O          27      -86.84      79.80      0.06  -3.242E+00   0.09 |
  |    O          28      -87.90      88.90      0.14  -3.150E+00   0.09 |
  |    O          29      -87.64      91.87      0.03  -3.196E+00   0.07 |
  |    O          30       -3.18      68.63      0.54   3.894E+00   0.85 |
  |    O          31       -3.16      68.63      0.54   3.894E+00   0.85 |
  |    O          32      -87.13      87.89      0.03  -3.202E+00   0.08 |
  |    O          33      -88.07      87.58      0.05  -3.181E+00   0.10 |
  |    O          34      -88.19      89.09      0.05  -3.181E+00   0.10 |
  |    O          35      -88.61      85.22      0.18  -3.142E+00   0.06 |
  |    O          36     -163.73     158.58      0.83   1.060E+00   0.85 |
  |    O          37      -87.91      77.02      0.26  -3.271E+00   0.11 |
  |    O          38     -162.80     147.00      0.87   1.045E+00   0.73 |
  |    O          39     -159.94     145.82      0.82   1.086E+00   0.69 |
  |    O          40     -160.01     145.15      0.82   1.084E+00   0.69 |
  |    O          41     -161.53     151.63      0.81   1.024E+00   0.80 |
  |    O          42      -88.58      85.35      0.08  -3.228E+00   0.07 |
  |    O          43      -88.05      82.98      0.20  -3.171E+00   0.08 |
  |    O          44      -88.90      95.08      0.26  -3.163E+00   0.11 |
  |    O          45      -88.56      85.04      0.08  -3.228E+00   0.07 |
  |    O          46     -161.57     151.43      0.81   1.021E+00   0.81 |
  |    O          47      -89.18      96.39      0.25  -3.159E+00   0.10 |
  |    O          48      -88.27      82.63      0.20  -3.168E+00   0.08 |
  |    O          49     -163.89     157.41      0.84   1.057E+00   0.85 |
  |    O          50      -88.45      85.29      0.17  -3.143E+00   0.07 |
  |    O          51      -88.29      93.19      0.29  -3.174E+00   0.07 |
  |    O          52      -88.37      93.67      0.29  -3.174E+00   0.07 |
  |    O          53      -88.05      77.92      0.26  -3.269E+00   0.11 |
  |    O          54     -162.79     148.05      0.87   1.047E+00   0.73 |
  |    O          55      -92.78      92.95      0.26  -3.174E+00   0.10 |
  |    O          56      -92.65      93.03      0.26  -3.174E+00   0.10 |
  |    Zr          1     1607.89    -119.25      0.15  -3.569E+01   0.03 |
  |    Zr          2     1607.78    -119.12      0.15  -3.571E+01   0.04 |
  |    Zr          3     1628.30    -125.63      0.05  -3.772E+01   0.12 |
  |    Zr          4     1628.08    -125.44      0.04  -3.769E+01   0.11 |
  |    Zr          5     1628.33    -124.85      0.15  -3.733E+01   0.06 |
  |    Zr          6     1628.65    -123.47      0.20  -3.766E+01   0.10 |
  |    Zr          7     1628.56    -123.67      0.20  -3.772E+01   0.11 |
  |    Zr          8     1628.64    -125.20      0.17  -3.733E+01   0.07 |
  |    Sn          1     3250.51     -45.40      0.10   1.285E+02   0.06 |
  |    Sn          2     3254.91     -64.19      0.55   1.265E+02   0.17 |
  |    Sn          3     3255.04     -64.41      0.55   1.265E+02   0.17 |
  |    Sn          4     3255.01     -59.26      0.40   1.252E+02   0.14 |
  |    Sn          5     3255.11     -57.26      0.33   1.251E+02   0.11 |
  |    Sn          6     3255.87     -59.32      0.42   1.252E+02   0.14 |
  |    Sn          7     3250.66     -45.32      0.09   1.284E+02   0.05 |
  |    Sn          8     3255.16     -57.21      0.33   1.252E+02   0.11 |
  |    La          1     4699.67     768.34      0.04  -8.359E+01   0.03 |
  |    La          2     4699.61     768.61      0.04  -8.366E+01   0.04 |
  |    La          3     4708.77     758.56      0.03  -8.655E+01   0.06 |
  |    La          4     4708.75     757.18      0.03  -8.644E+01   0.07 |
  |    La          5     4604.63     547.05      0.07  -7.718E+01   0.18 |
  |    La          6     4613.54     519.64      0.07  -7.861E+01   0.08 |
  |    La          7     4707.14     780.79      0.10  -8.506E+01   0.11 |
  |    La          8     4602.23     503.40      0.09  -7.552E+01   0.07 |
  |    La          9     4602.28     503.85      0.09  -7.559E+01   0.07 |
  |    La         10     4706.99     780.38      0.10  -8.504E+01   0.11 |
  |    La         11     4598.11     531.11      0.09  -7.611E+01   0.10 |
  |    La         12     4704.92     745.50      0.04  -8.349E+01   0.09 |
  |    La         13     4598.07     530.75      0.09  -7.606E+01   0.10 |
  |    La         14     4613.28     518.29      0.06  -7.857E+01   0.08 |
  |    La         15     4705.12     747.79      0.04  -8.364E+01   0.09 |
  |    La         16     4604.84     547.90      0.07  -7.716E+01   0.18 |
  ========================================================================
 
 *********************** Forces ***********************
 *                                                    *
 *            Cartesian components (eV/A)             *
 * -------------------------------------------------- *
 *                   x            y            z      *
 *                                                    *
 * O         1     -0.00512     -0.00289     -0.00202 *
 * O         2      0.00147      0.00202     -0.00291 *
 * O         3      0.00246     -0.00655     -0.00462 *
 * O         4     -0.00451      0.00305     -0.00514 *
 * O         5     -0.00152     -0.00877      0.00273 *
 * O         6      0.00029      0.00671      0.00470 *
 * O         7     -0.00134     -0.00089     -0.00379 *
 * O         8     -0.00146      0.00073     -0.00296 *
 * O         9     -0.00743      0.01647      0.01611 *
 * O        10      0.00258     -0.01626      0.01484 *
 * O        11     -0.00927     -0.00545      0.00329 *
 * O        12      0.00704      0.00329      0.00334 *
 * O        13      0.00161     -0.00030      0.00477 *
 * O        14     -0.01587      0.00354      0.01870 *
 * O        15     -0.00668     -0.00135      0.00639 *
 * O        16      0.01915      0.00020      0.02083 *
 * O        17      0.00302      0.00106     -0.00158 *
 * O        18     -0.00460     -0.00193     -0.00785 *
 * O        19      0.00310     -0.00050     -0.00747 *
 * O        20      0.00180      0.00827      0.00250 *
 * O        21      0.00438      0.00690     -0.00394 *
 * O        22     -0.00610     -0.01192     -0.00141 *
 * O        23     -0.01961     -0.00789     -0.02078 *
 * O        24      0.01662      0.00755     -0.02023 *
 * O        25      0.00295      0.01663     -0.03000 *
 * O        26     -0.00286     -0.01759     -0.02361 *
 * O        27     -0.00407     -0.02036     -0.03074 *
 * O        28      0.00113      0.02432     -0.02552 *
 * O        29      0.02552      0.02692      0.00385 *
 * O        30     -0.00951      0.00110      0.00271 *
 * O        31      0.00655     -0.00286      0.00186 *
 * O        32     -0.01872     -0.01818      0.00031 *
 * O        33      0.00185     -0.01286      0.01356 *
 * O        34     -0.00287      0.01447      0.01689 *
 * O        35      0.00591     -0.00060     -0.02325 *
 * O        36     -0.00296     -0.01247      0.00188 *
 * O        37     -0.01809      0.00502      0.01093 *
 * O        38     -0.01253     -0.00753     -0.00770 *
 * O        39     -0.00191     -0.01221      0.00988 *
 * O        40      0.00621      0.01096      0.01227 *
 * O        41      0.01104      0.01076      0.00716 *
 * O        42     -0.00995     -0.01596      0.01570 *
 * O        43     -0.00721     -0.02516      0.00265 *
 * O        44     -0.00645      0.00909     -0.00417 *
 * O        45      0.00710      0.01176      0.01561 *
 * O        46     -0.00773     -0.00264      0.00592 *
 * O        47      0.00767     -0.01007     -0.00420 *
 * O        48      0.00497      0.02066      0.00381 *
 * O        49      0.00893      0.02102      0.00055 *
 * O        50     -0.00902     -0.00291     -0.02263 *
 * O        51      0.00493      0.01467     -0.00400 *
 * O        52     -0.00868     -0.01761     -0.00431 *
 * O        53      0.01940     -0.00739      0.00865 *
 * O        54      0.00911      0.00477     -0.00755 *
 * O        55     -0.01821     -0.01278      0.00724 *
 * O        56      0.01452      0.00978      0.00728 *
 * Zr        1     -0.00144      0.01608     -0.01878 *
 * Zr        2      0.00690      0.00383     -0.01626 *
 * Zr        3     -0.00520     -0.00369     -0.00844 *
 * Zr        4      0.00967      0.00056     -0.00799 *
 * Zr        5     -0.01205     -0.00956      0.02175 *
 * Zr        6      0.01382      0.01227      0.00532 *
 * Zr        7     -0.00329     -0.00084      0.00563 *
 * Zr        8      0.01975     -0.01848      0.03373 *
 * Sn        1     -0.00608      0.00153     -0.01043 *
 * Sn        2     -0.00781     -0.00436      0.01217 *
 * Sn        3      0.00812      0.00597      0.00487 *
 * Sn        4      0.01244     -0.00364      0.00045 *
 * Sn        5      0.00916     -0.00245      0.00636 *
 * Sn        6     -0.00767      0.01450      0.00076 *
 * Sn        7      0.00983     -0.00737     -0.01590 *
 * Sn        8     -0.01123      0.00057      0.00515 *
 * La        1      0.00309     -0.01615      0.00062 *
 * La        2     -0.00718      0.01582      0.00301 *
 * La        3     -0.00454      0.01841      0.00965 *
 * La        4      0.00695     -0.01330      0.00923 *
 * La        5     -0.00857      0.00455      0.00393 *
 * La        6      0.00153      0.00021     -0.00301 *
 * La        7     -0.00094     -0.01708      0.01063 *
 * La        8     -0.00888      0.00592     -0.00632 *
 * La        9      0.00315     -0.00445     -0.00559 *
 * La       10      0.00211      0.00756      0.00197 *
 * La       11      0.01053     -0.00632      0.00743 *
 * La       12     -0.00961     -0.02608     -0.01088 *
 * La       13     -0.00516      0.00047      0.00440 *
 * La       14     -0.00783      0.00502     -0.01162 *
 * La       15      0.00942      0.02675     -0.01146 *
 * La       16      0.00401     -0.00408      0.00512 *
 *                                                    *
 ******************************************************
 
 ***************** Stress Tensor *****************
 *                                               *
 *          Cartesian components (GPa)           *
 * --------------------------------------------- *
 *             x             y             z     *
 *                                               *
 *  x      0.024093      0.024475     -0.000036  *
 *  y      0.024475      0.033355     -0.000103  *
 *  z     -0.000036     -0.000103      0.004282  *
 *                                               *
 *  Pressure:   -0.0206                          *
 *                                               *
 *************************************************
 
 Pseudo atomic calculation performed for O 2s2 2p4
 
 Converged in 39 iterations to a total energy of -432.6554 eV
 
 
 Pseudo atomic calculation performed for Zr 4s2 4p6 4d2 5s2
 
 Converged in 38 iterations to a total energy of -1285.4931 eV
 
 
 Pseudo atomic calculation performed for Sn 4d10 5s2 5p2
 
 Converged in 48 iterations to a total energy of -2044.5414 eV
 
 
 Pseudo atomic calculation performed for La 5s2 5p6 5d1 6s2
 
 Converged in 34 iterations to a total energy of -968.0372 eV
 
Charge spilling parameter for spin component 1 = 0.24%
 
     Atomic Populations (Mulliken)
     -----------------------------
Species   Ion     s      p      d      f     Total  Charge (e)
==============================================================
  O        1     1.87   5.00   0.00   0.00   6.87    -0.87
  O        2     1.87   5.00   0.00   0.00   6.87    -0.87
  O        3     1.87   5.00   0.00   0.00   6.87    -0.87
  O        4     1.87   5.00   0.00   0.00   6.87    -0.87
  O        5     1.87   5.00   0.00   0.00   6.87    -0.87
  O        6     1.87   5.00   0.00   0.00   6.87    -0.87
  O        7     1.87   5.00   0.00   0.00   6.87    -0.87
  O        8     1.87   5.00   0.00   0.00   6.87    -0.87
  O        9     1.87   4.99   0.00   0.00   6.85    -0.85
  O       10     1.87   4.99   0.00   0.00   6.85    -0.85
  O       11     1.88   5.02   0.00   0.00   6.91    -0.91
  O       12     1.88   5.02   0.00   0.00   6.91    -0.91
  O       13     1.88   5.02   0.00   0.00   6.91    -0.91
  O       14     1.87   4.99   0.00   0.00   6.86    -0.86
  O       15     1.88   5.02   0.00   0.00   6.91    -0.91
  O       16     1.87   4.99   0.00   0.00   6.86    -0.86
  O       17     1.86   4.95   0.00   0.00   6.80    -0.80
  O       18     1.88   5.03   0.00   0.00   6.91    -0.91
  O       19     1.88   5.03   0.00   0.00   6.91    -0.91
  O       20     1.86   4.95   0.00   0.00   6.80    -0.80
  O       21     1.88   5.02   0.00   0.00   6.91    -0.91
  O       22     1.88   5.02   0.00   0.00   6.91    -0.91
  O       23     1.87   4.99   0.00   0.00   6.86    -0.86
  O       24     1.87   4.99   0.00   0.00   6.86    -0.86
  O       25     1.87   4.99   0.00   0.00   6.86    -0.86
  O       26     1.87   4.99   0.00   0.00   6.86    -0.86
  O       27     1.87   4.99   0.00   0.00   6.86    -0.86
  O       28     1.87   4.99   0.00   0.00   6.86    -0.86
  O       29     1.87   4.99   0.00   0.00   6.86    -0.86
  O       30     1.88   5.02   0.00   0.00   6.91    -0.91
  O       31     1.88   5.02   0.00   0.00   6.91    -0.91
  O       32     1.87   4.99   0.00   0.00   6.86    -0.86
  O       33     1.87   4.99   0.00   0.00   6.86    -0.86
  O       34     1.87   4.99   0.00   0.00   6.86    -0.86
  O       35     1.87   4.99   0.00   0.00   6.86    -0.86
  O       36     1.86   4.95   0.00   0.00   6.80    -0.80
  O       37     1.87   4.99   0.00   0.00   6.86    -0.86
  O       38     1.86   4.95   0.00   0.00   6.80    -0.80
  O       39     1.86   4.95   0.00   0.00   6.80    -0.80
  O       40     1.86   4.95   0.00   0.00   6.80    -0.80
  O       41     1.86   4.95   0.00   0.00   6.80    -0.80
  O       42     1.87   4.99   0.00   0.00   6.86    -0.86
  O       43     1.87   4.99   0.00   0.00   6.86    -0.86
  O       44     1.87   4.99   0.00   0.00   6.85    -0.85
  O       45     1.87   4.99   0.00   0.00   6.86    -0.86
  O       46     1.86   4.95   0.00   0.00   6.80    -0.80
  O       47     1.87   4.99   0.00   0.00   6.85    -0.85
  O       48     1.87   4.99   0.00   0.00   6.86    -0.86
  O       49     1.86   4.95   0.00   0.00   6.80    -0.80
  O       50     1.87   4.99   0.00   0.00   6.86    -0.86
  O       51     1.87   4.99   0.00   0.00   6.86    -0.86
  O       52     1.87   4.99   0.00   0.00   6.86    -0.86
  O       53     1.87   4.99   0.00   0.00   6.86    -0.86
  O       54     1.86   4.95   0.00   0.00   6.80    -0.80
  O       55     1.87   4.99   0.00   0.00   6.86    -0.86
  O       56     1.87   4.99   0.00   0.00   6.86    -0.86
  Zr       1     2.37   6.50   1.92   0.00  10.79     1.21
  Zr       2     2.37   6.50   1.92   0.00  10.79     1.21
  Zr       3     2.37   6.48   1.92   0.00  10.78     1.22
  Zr       4     2.37   6.48   1.92   0.00  10.78     1.22
  Zr       5     2.37   6.48   1.92   0.00  10.77     1.23
  Zr       6     2.37   6.48   1.92   0.00  10.77     1.23
  Zr       7     2.37   6.48   1.92   0.00  10.77     1.23
  Zr       8     2.37   6.48   1.92   0.00  10.77     1.23
  Sn       1     1.05   1.31  10.00   0.00  12.36     1.64
  Sn       2     1.05   1.31  10.00   0.00  12.36     1.64
  Sn       3     1.05   1.31  10.00   0.00  12.36     1.64
  Sn       4     1.05   1.31  10.00   0.00  12.36     1.64
  Sn       5     1.05   1.31  10.00   0.00  12.36     1.64
  Sn       6     1.05   1.31  10.00   0.00  12.36     1.64
  Sn       7     1.05   1.31  10.00   0.00  12.36     1.64
  Sn       8     1.05   1.31  10.00   0.00  12.36     1.64
  La       1     2.05   6.16   1.20   0.00   9.41     1.59
  La       2     2.05   6.16   1.20   0.00   9.41     1.59
  La       3     2.04   6.16   1.19   0.00   9.40     1.60
  La       4     2.04   6.16   1.19   0.00   9.40     1.60
  La       5     2.10   6.18   1.19   0.00   9.47     1.53
  La       6     2.07   6.19   1.19   0.00   9.45     1.55
  La       7     2.03   6.16   1.20   0.00   9.38     1.62
  La       8     2.10   6.19   1.19   0.00   9.48     1.52
  La       9     2.10   6.19   1.19   0.00   9.48     1.52
  La      10     2.03   6.16   1.20   0.00   9.38     1.62
  La      11     2.08   6.18   1.19   0.00   9.46     1.54
  La      12     2.03   6.16   1.19   0.00   9.39     1.61
  La      13     2.08   6.18   1.19   0.00   9.46     1.54
  La      14     2.07   6.19   1.19   0.00   9.45     1.55
  La      15     2.03   6.16   1.19   0.00   9.39     1.61
  La      16     2.10   6.18   1.19   0.00   9.47     1.53
==============================================================
 
            Bond              Population      Length (A)
============================================================
         O 23 -- Sn 1              0.35        2.10043
         O 24 -- Sn 7              0.35        2.10063
         O 37 -- Sn 3              0.34        2.10255
         O 53 -- Sn 2              0.34        2.10256
         O 42 -- Sn 5              0.35        2.10452
         O 45 -- Sn 8              0.35        2.10459
         O 43 -- Sn 6              0.35        2.10469
         O 51 -- Sn 1              0.34        2.10481
         O 52 -- Sn 7              0.34        2.10487
         O 48 -- Sn 4              0.35        2.10510
         O 27 -- Sn 8              0.35        2.10514
         O 25 -- Sn 5              0.35        2.10528
         O 33 -- Sn 4              0.34        2.10578
         O 34 -- Sn 6              0.34        2.10580
         O 19 -- Sn 3              0.34        2.10632
         O 18 -- Sn 2              0.34        2.10633
         O 9  -- Sn 7              0.35        2.10684
         O 32 -- Sn 4              0.35        2.10695
         O 16 -- Sn 1              0.34        2.10697
         O 29 -- Sn 6              0.35        2.10701
         O 14 -- Sn 7              0.34        2.10701
         O 10 -- Sn 1              0.34        2.10712
         O 26 -- Sn 2              0.34        2.10802
         O 28 -- Sn 3              0.34        2.10812
         O 36 -- Zr 3              0.41        2.10819
         O 56 -- Sn 3              0.34        2.10819
         O 55 -- Sn 2              0.34        2.10826
         O 44 -- Sn 7              0.34        2.10904
         O 47 -- Sn 1              0.34        2.10918
         O 15 -- Sn 8              0.34        2.10979
         O 12 -- Sn 6              0.34        2.10981
         O 13 -- Sn 5              0.34        2.10991
         O 11 -- Sn 4              0.34        2.11008
         O 49 -- Zr 4              0.41        2.11019
         O 18 -- Sn 5              0.33        2.11121
         O 19 -- Sn 8              0.33        2.11135
         O 31 -- Sn 1              0.33        2.11145
         O 30 -- Sn 7              0.33        2.11158
         O 13 -- Sn 6              0.33        2.11235
         O 50 -- Sn 5              0.34        2.11239
         O 15 -- Sn 4              0.33        2.11243
         O 35 -- Sn 8              0.34        2.11255
         O 11 -- Sn 3              0.34        2.11258
         O 12 -- Sn 2              0.34        2.11284
         O 31 -- Sn 8              0.33        2.11377
         O 30 -- Sn 5              0.33        2.11380
         O 24 -- Zr 7              0.44        2.11409
         O 36 -- Zr 8              0.41        2.11449
         O 49 -- Zr 5              0.42        2.11453
         O 23 -- Zr 6              0.44        2.11527
         O 40 -- Zr 6              0.43        2.11715
         O 54 -- Zr 1              0.42        2.11724
         O 47 -- Zr 4              0.46        2.11748
         O 38 -- Zr 2              0.42        2.11765
         O 52 -- Zr 1              0.45        2.11793
         O 39 -- Zr 7              0.43        2.11813
         O 28 -- Zr 5              0.45        2.11814
         O 56 -- Zr 1              0.44        2.11822
         O 55 -- Zr 2              0.44        2.11832
         O 54 -- Zr 7              0.41        2.11836
         O 34 -- Zr 4              0.44        2.11840
         O 51 -- Zr 2              0.45        2.11847
         O 29 -- Zr 5              0.45        2.11860
         O 44 -- Zr 3              0.46        2.11875
         O 41 -- Zr 8              0.43        2.11911
         O 17 -- Zr 8              0.42        2.11936
         O 20 -- Zr 6              0.42        2.11956
         O 38 -- Zr 6              0.41        2.11967
         O 42 -- Zr 2              0.44        2.11967
         O 16 -- Zr 8              0.45        2.12000
         O 45 -- Zr 1              0.44        2.12009
         O 33 -- Zr 3              0.44        2.12015
         O 14 -- Zr 5              0.45        2.12017
         O 26 -- Zr 8              0.45        2.12025
         O 17 -- Zr 7              0.42        2.12047
         O 46 -- Zr 5              0.43        2.12133
         O 22 -- Sn 3              0.33        2.12157
         O 22 -- Sn 6              0.33        2.12158
         O 21 -- Sn 2              0.33        2.12160
         O 10 -- Zr 7              0.45        2.12161
         O 21 -- Sn 4              0.33        2.12179
         O 39 -- Zr 4              0.42        2.12192
         O 9  -- Zr 6              0.45        2.12207
         O 46 -- Zr 3              0.42        2.12233
         O 43 -- Zr 2              0.44        2.12240
         O 27 -- Zr 6              0.45        2.12249
         O 25 -- Zr 7              0.45        2.12278
         O 48 -- Zr 1              0.44        2.12279
         O 32 -- Zr 8              0.44        2.12303
         O 53 -- Zr 3              0.45        2.12319
         O 20 -- Zr 5              0.42        2.12377
         O 41 -- Zr 4              0.42        2.12385
         O 40 -- Zr 3              0.42        2.12389
         O 37 -- Zr 4              0.45        2.12433
         O 50 -- Zr 1              0.45        2.12448
         O 35 -- Zr 2              0.45        2.12448
         O 3  -- La 3              0.19        2.35726
         O 4  -- La 4              0.19        2.35742
         O 2  -- La 7              0.19        2.35762
         O 1  -- La 10             0.19        2.35775
         O 8  -- La 10             0.18        2.35783
         O 7  -- La 7              0.18        2.35795
         O 8  -- La 4              0.19        2.35825
         O 7  -- La 3              0.19        2.35827
         O 6  -- La 1              0.17        2.35839
         O 5  -- La 2              0.17        2.35841
         O 2  -- La 2              0.18        2.35848
         O 5  -- La 15             0.18        2.35854
         O 6  -- La 12             0.18        2.35862
         O 1  -- La 1              0.18        2.35878
         O 1  -- La 15             0.19        2.35969
         O 2  -- La 12             0.19        2.35984
         O 4  -- La 6              0.17        2.36082
         O 3  -- La 14             0.17        2.36097
         O 3  -- La 5              0.16        2.36112
         O 4  -- La 16             0.16        2.36115
         O 1  -- La 11             0.17        2.36126
         O 2  -- La 13             0.17        2.36140
         O 6  -- La 14             0.18        2.36162
         O 5  -- La 6              0.18        2.36174
         O 7  -- La 11             0.16        2.36176
         O 8  -- La 13             0.16        2.36182
         O 8  -- La 5              0.17        2.36229
         O 7  -- La 16             0.17        2.36239
         O 6  -- La 9              0.17        2.36327
         O 5  -- La 8              0.17        2.36348
         O 4  -- La 9              0.16        2.36348
         O 3  -- La 8              0.16        2.36353
         O 40 -- La 9              0.13        2.65824
         O 39 -- La 8              0.13        2.65837
         O 49 -- La 1              0.13        2.65939
         O 36 -- La 2              0.12        2.65944
         O 38 -- La 10             0.13        2.66279
         O 46 -- La 1              0.13        2.66311
         O 54 -- La 7              0.12        2.66312
         O 41 -- La 2              0.13        2.66315
         O 42 -- La 16             0.18        2.66481
         O 45 -- La 5              0.18        2.66500
         O 46 -- La 15             0.13        2.66625
         O 48 -- La 6              0.18        2.66648
         O 41 -- La 12             0.13        2.66657
         O 43 -- La 14             0.18        2.66682
         O 38 -- La 4              0.14        2.66718
         O 54 -- La 3              0.14        2.66720
         O 17 -- La 15             0.12        2.66722
         O 15 -- La 13             0.23        2.66728
         O 20 -- La 12             0.12        2.66735
         O 13 -- La 11             0.23        2.66751
         O 36 -- La 15             0.13        2.66761
         O 49 -- La 12             0.13        2.66768
         O 35 -- La 16             0.18        2.66781
         O 9  -- La 11             0.18        2.66787
         O 33 -- La 13             0.17        2.66792
         O 50 -- La 5              0.18        2.66796
         O 10 -- La 13             0.18        2.66813
         O 34 -- La 11             0.17        2.66815
         O 20 -- La 7              0.13        2.66838
         O 17 -- La 10             0.13        2.66867
         O 11 -- La 8              0.23        2.66894
         O 12 -- La 9              0.23        2.66917
         O 21 -- La 8              0.25        2.66979
         O 22 -- La 9              0.25        2.67008
         O 21 -- La 6              0.25        2.67035
         O 30 -- La 11             0.24        2.67039
         O 31 -- La 13             0.24        2.67049
         O 22 -- La 14             0.25        2.67080
         O 28 -- La 16             0.18        2.67167
         O 23 -- La 11             0.16        2.67168
         O 26 -- La 5              0.19        2.67170
         O 24 -- La 13             0.16        2.67187
         O 53 -- La 9              0.19        2.67248
         O 37 -- La 8              0.19        2.67258
         O 27 -- La 9              0.17        2.67289
         O 25 -- La 8              0.17        2.67302
         O 56 -- La 2              0.18        2.67349
         O 55 -- La 1              0.18        2.67353
         O 11 -- La 14             0.24        2.67395
         O 12 -- La 6              0.24        2.67412
         O 47 -- La 11             0.18        2.67430
         O 19 -- La 9              0.24        2.67433
         O 18 -- La 8              0.24        2.67434
         O 44 -- La 13             0.18        2.67434
         O 55 -- La 10             0.18        2.67496
         O 56 -- La 7              0.18        2.67522
         O 51 -- La 14             0.19        2.67534
         O 52 -- La 6              0.19        2.67537
         O 32 -- La 14             0.19        2.67622
         O 29 -- La 6              0.18        2.67642
         O 40 -- La 4              0.14        2.67712
         O 39 -- La 3              0.14        2.67715
         O 31 -- La 5              0.24        2.67722
         O 30 -- La 16             0.24        2.67728
         O 16 -- La 5              0.19        2.67753
         O 14 -- La 16             0.19        2.67754
         O 18 -- La 5              0.23        2.67812
         O 19 -- La 16             0.23        2.67813
         O 51 -- La 1              0.17        2.68157
         O 52 -- La 2              0.17        2.68160
         O 45 -- La 3              0.19        2.68299
         O 42 -- La 4              0.19        2.68314
         O 15 -- La 12             0.23        2.68320
         O 13 -- La 15             0.23        2.68323
         O 25 -- La 15             0.18        2.68411
         O 27 -- La 12             0.18        2.68421
         O 53 -- La 1              0.18        2.68442
         O 37 -- La 2              0.18        2.68442
         O 43 -- La 3              0.18        2.68522
         O 48 -- La 4              0.18        2.68533
         O 29 -- La 15             0.17        2.68564
         O 32 -- La 12             0.17        2.68573
         O 28 -- La 7              0.17        2.68805
         O 26 -- La 10             0.17        2.68808
         O 23 -- La 7              0.18        2.68832
         O 24 -- La 10             0.18        2.68848
         O 44 -- La 2              0.18        2.68955
         O 47 -- La 1              0.18        2.68965
         O 16 -- La 14             0.18        2.69129
         O 14 -- La 6              0.18        2.69131
         O 35 -- La 3              0.20        2.69140
         O 50 -- La 4              0.20        2.69171
         O 9  -- La 10             0.18        2.69189
         O 10 -- La 7              0.18        2.69191
         O 33 -- La 4              0.19        2.69205
         O 34 -- La 3              0.19        2.69227
         O 13 -- O 34             -0.06        2.79072
         O 15 -- O 33             -0.06        2.79088
         O 23 -- O 47             -0.06        2.79430
         O 24 -- O 44             -0.06        2.79444
         O 53 -- O 55             -0.06        2.79561
         O 37 -- O 56             -0.06        2.79570
         O 30 -- O 42             -0.06        2.79664
         O 31 -- O 45             -0.06        2.79674
         O 11 -- O 37             -0.06        2.79772
         O 12 -- O 53             -0.06        2.79774
         O 15 -- O 31             -0.05        2.79796
         O 13 -- O 30             -0.05        2.79801
         O 9  -- O 30             -0.06        2.79825
         O 10 -- O 31             -0.06        2.79838
         O 19 -- O 28             -0.06        2.79890
         O 12 -- O 29             -0.06        2.79906
         O 18 -- O 26             -0.06        2.79919
         O 11 -- O 32             -0.06        2.79945
         O 19 -- O 27             -0.06        2.79995
         O 18 -- O 25             -0.06        2.80001
         O 18 -- O 50             -0.06        2.80140
         O 19 -- O 35             -0.06        2.80145
         O 19 -- O 22             -0.05        2.80154
         O 18 -- O 21             -0.05        2.80155
         O 22 -- O 43             -0.06        2.80364
         O 21 -- O 48             -0.06        2.80370
         O 44 -- O 52             -0.06        2.80544
         O 15 -- O 27             -0.06        2.80551
         O 47 -- O 51             -0.06        2.80557
         O 13 -- O 25             -0.06        2.80563
         O 12 -- O 22             -0.05        2.80585
         O 11 -- O 21             -0.05        2.80594
         O 28 -- O 56             -0.06        2.80652
         O 26 -- O 55             -0.06        2.80662
         O 36 -- O 41             -0.04        2.80668
         O 46 -- O 49             -0.04        2.80669
         O 13 -- O 29             -0.06        2.80682
         O 15 -- O 32             -0.06        2.80718
         O 14 -- O 52             -0.06        2.80786
         O 16 -- O 51             -0.06        2.80789
         O 42 -- O 50             -0.06        2.80845
         O 35 -- O 45             -0.06        2.80846
         O 16 -- O 31             -0.06        2.80896
         O 14 -- O 30             -0.06        2.80907
         O 34 -- O 43             -0.06        2.81038
         O 33 -- O 48             -0.06        2.81061
         O 12 -- O 21             -0.05        2.81108
         O 11 -- O 22             -0.05        2.81113
         O 9  -- O 24             -0.06        2.81114
         O 10 -- O 23             -0.06        2.81118
         O 41 -- O 49             -0.03        2.81338
         O 36 -- O 46             -0.03        2.81347
         O 40 -- O 53             -0.03        2.81593
         O 37 -- O 39             -0.03        2.81605
         O 20 -- O 49             -0.03        2.81622
         O 17 -- O 36             -0.03        2.81622
         O 38 -- O 55             -0.03        2.81635
         O 54 -- O 56             -0.03        2.81642
         O 10 -- O 24             -0.03        2.81837
         O 9  -- O 23             -0.03        2.81849
         O 45 -- O 50             -0.03        2.81911
         O 35 -- O 42             -0.03        2.81915
         O 17 -- O 24             -0.03        2.81985
         O 20 -- O 23             -0.03        2.82019
         O 47 -- O 49             -0.03        2.82045
         O 36 -- O 44             -0.03        2.82057
         O 39 -- O 54             -0.03        2.82132
         O 38 -- O 40             -0.03        2.82160
         O 25 -- O 39             -0.03        2.82175
         O 27 -- O 40             -0.03        2.82191
         O 48 -- O 52             -0.03        2.82242
         O 43 -- O 51             -0.03        2.82249
         O 51 -- O 55             -0.03        2.82315
         O 52 -- O 56             -0.03        2.82318
         O 16 -- O 26             -0.03        2.82421
         O 14 -- O 28             -0.03        2.82428
         O 33 -- O 44             -0.03        2.82451
         O 34 -- O 47             -0.03        2.82451
         O 37 -- O 41             -0.03        2.82595
         O 10 -- O 54             -0.03        2.82599
         O 9  -- O 38             -0.03        2.82617
         O 46 -- O 53             -0.03        2.82623
         O 17 -- O 25             -0.03        2.82687
         O 20 -- O 27             -0.03        2.82734
         O 29 -- O 46             -0.03        2.82770
         O 32 -- O 41             -0.03        2.82773
         O 45 -- O 54             -0.03        2.82855
         O 38 -- O 42             -0.03        2.82858
         O 20 -- O 28             -0.03        2.82871
         O 17 -- O 26             -0.03        2.82880
         O 33 -- O 40             -0.03        2.83431
         O 34 -- O 39             -0.03        2.83450
         O 16 -- O 32             -0.03        2.83670
         O 14 -- O 29             -0.03        2.83684
         O 48 -- O 50             -0.03        2.83945
         O 35 -- O 43             -0.03        2.83949
============================================================
 

Writing analysis data to 024.castep_bin

Writing model to 024.check
 
 A BibTeX formatted list of references used in this run has been written to 
 024.bib
 
Initialisation time =     53.56 s
Calculation time    =  33700.41 s
Finalisation time   =     56.59 s
Total time          =  33810.56 s
Peak Memory Use     = 2839480 kB
  
Overall parallel efficiency rating: Good (79%)                                  
  
Data was distributed by:-
G-vector (4-way); efficiency rating: Very good (80%)                            
k-point (14-way); efficiency rating: Excellent (98%)                            
