 +-------------------------------------------------+
 |                                                 |
 |      CCC   AA    SSS  TTTTT  EEEEE  PPPP        |
 |     C     A  A  S       T    E      P   P       |
 |     C     AAAA   SS     T    EEE    PPPP        |
 |     C     A  A     S    T    E      P           |
 |      CCC  A  A  SSS     T    EEEEE  P           |
 |                                                 |
 +-------------------------------------------------+
 |                                                 |
 | Welcome to Academic Release CASTEP version 16.11|          
 | Ab Initio Total Energy Program                  |
 |                                                 |
 | Authors:                                        |
 | M. Segall, M. Probert, C. Pickard, P. Hasnip,   |
 | S. Clark, K. Refson, J. R. Yates, M. Payne      |
 |                                                 |
 | Contributors:                                   |
 | P. Lindan, P. Haynes, J. White, V. Milman,      |
 | N. Govind, M. Gibson, P. Tulip, V. Cocula,      |
 | B. Montanari, D. Quigley, M. Glover,            |
 | L. Bernasconi, A. Perlov, M. Plummer,           |
 | E. McNellis, J. Meyer, J. Gale, D. Jochym       |
 | J. Aarons, B. Walker, R. Gillen, D. Jones       |
 | T. Green, I. J. Bush, C. J. Armstrong,          |
 | E. J. Higgins, E. L. Brown, M. S. McFly         |
 |                                                 |
 | Copyright (c) 2000 - 2015                       |
 |                                                 |
 |     Distributed under the terms of an           |
 |     Agreement between the United Kingdom        |
 |     Car-Parrinello (UKCP) Consortium,           |
 |     Daresbury Laboratory and Accelrys, Inc.     |
 |                                                 |
 | Please cite                                     |
 |                                                 |
 |     "First principles methods using CASTEP"     |
 |                                                 |
 |         Zeitschrift fuer Kristallographie       |
 |           220(5-6) pp. 567-570 (2005)           |
 |                                                 |
 | S. J. Clark, M. D. Segall, C. J. Pickard,       |
 | P. J. Hasnip, M. J. Probert, K. Refson,         |
 | M. C. Payne                                     |
 |                                                 |
 |       in all publications arising from          |
 |              your use of CASTEP                 |
 |                                                 |
 +-------------------------------------------------+
 
 
 Compiled for linux_x86_64_ifort16 on Sat, 23 Jul 2016 23:44:54 +0100
 from code version 
 203e84763863+ Castep161_branch Fri, 04 Mar 2016 19:21:07 +0000
 Compiler: Intel Fortran 16.0.3.210; Optimisation: fast
 MATHLIBS: Intel MKL(11.3.3) (LAPACK version 3.6.0)
 FFT Lib : mkl
 Fundamental constants values: CODATA 2010
 
 Run started: Thu, 26 Apr 2018 01:47:21 +0100
 +-------------------------------------------------+
 |                                                 |
 |           N   N    M   M    RRRR                |
 |           NN  N    MM MM    R   R               |
 |           N N N    M M M    RRRR                |
 |           N  NN    M   M    R  R                |
 |           N   N    M   M    R   R               |
 |                                                 |
 +-------------------------------------------------+
 |                                                 |
 | Welcome to Materials Studio CASTEP-NMR          |
 |                                                 |
 | Authors:                                        |
 | J.R. Yates, C.J. Pickard, F. Mauri              |
 |                                                 |
 | Contributors:                                   |
 | T.F.G. Green, S.A. Joyce                        |
 |                                                 |
 | Copyright (c) 2004 - 2015                       |
 |                                                 |
 | Please cite the appropriate publications in all |
 | work arising from your use of CASTEP NMR.       |
 |                                                 |
 | For NMR Shielding Tensors cite:                 |
 |    "All-electron magnetic response with         |
 |    pseudopotentials: NMR chemical shifts",      |
 |    C. J. Pickard, F. Mauri;                     |
 |    Physical Review B63 245101 (2001), and       |
 |                                                 |
 |    "Calculation of NMR Chemical Shifts          |
 |    for extended systems using                   |
 |    Ultrasoft Pseudopotentials",                 |
 |    J. R. Yates, C. J. Pickard and F. Mauri      |
 |    Physical Review B76 024401 (2007)            |
 |                                                 |
 | For Electric Field Gradients cite:              |
 |   "Accurate First Principles Prediction of 17O  |
 |    NMR Parameters in SiO2: Assignment of the    |
 |    Zeolite Ferrierite Spectrum"                 |
 |    M. Profeta, F. Mauri and C. J. Pickard       |
 |    J. Amer. Chem. Soc. 125 541 (2003)           |
 |                                                 |
 | For Spin-Spin (J) Couplings cite:               |
 |   "A first principles theory of NMR J-coupling  |
 |   in solid-state systems"                       |
 |   S.A. Joyce, J.R. Yates, C.J. Pickard, F. Mauri|
 |   J. Chem. Phys. 127 204107 (2007)              |
 |                                                 |
 |   "Relativistic NMR J-coupling with ultrasoft   |
 |   pseudopotentials and the zeroth-order regular |
 |   approximation"                                |
 |   T.F.G. Green and J.R. Yates                   |
 |   J. Chem. Phys. 140 234106 (2014)              |
 |                                                 |
 +-------------------------------------------------+
 
 
 Atomic calculation performed for O: 1s2 2s2 2p4
 
 Converged in 44 iterations to an ae energy of -2040.855 eV
 
 
 Atomic calculation performed for O: 1s2 2s2 2p4
 
 Exceeded max iterations: converged to 0.000000062 eV
 
   ============================================================                
   | Pseudopotential Report - Date of generation 26-04-2018   |                
   ------------------------------------------------------------                
   | Element: O Ionic charge:  6.00 Level of theory: PBE      |                
   | Atomic Solver: ZORA (scalar)                             |                
   |                                                          |                
   |               Reference Electronic Structure             |                
   |         Orbital         Occupation         Energy        |                
   |            2s              2.000           -0.881        |                
   |            2p              4.000           -0.332        |                
   |                                                          |                
   |                 Pseudopotential Definition               |                
   |        Beta     l      e      Rc     scheme   norm       |                
   |          1      0   -0.881   1.100     qc      0         |                
   |          2      0    0.250   1.100     qc      0         |                
   |          3      1   -0.332   1.100     qc      0         |                
   |          4      1    0.250   1.100     qc      0         |                
   |         loc     2    0.000   1.100     pn      0         |                
   |                                                          |                
   | Augmentation charge Rinner = 0.769                       |                
   | Partial core correction Rc = 0.769                       |                
   ------------------------------------------------------------                
   | "2|1.1|15|18|20|20:21(qc=7)"                             |                
   ------------------------------------------------------------                
   |      Author: Chris J. Pickard, Cambridge University      |                
   ============================================================                
 
 Atomic calculation performed for Zr: 1s2 2s2 2p6 3s2 3p6 3d10 4s2 4p6 4d2 5s2
 
 Converged in 53 iterations to an ae energy of -97719.888 eV
 
 
 Atomic calculation performed for Zr: 1s2 2s2 2p6 3s2 3p6 3d10 4s2 4p6 4d2 5s2
 
 Exceeded max iterations: converged to 0.000000970 eV
 
 Warning: ion_atom_descreen_psp: negative charge density encountered
   ============================================================                
   | Pseudopotential Report - Date of generation 26-04-2018   |                
   ------------------------------------------------------------                
   | Element: Zr Ionic charge: 12.00 Level of theory: PBE     |                
   | Atomic Solver: ZORA (scalar)                             |                
   |                                                          |                
   |               Reference Electronic Structure             |                
   |         Orbital         Occupation         Energy        |                
   |            4s              2.000           -2.003        |                
   |            4p              6.000           -1.193        |                
   |            5s              2.000           -0.163        |                
   |            4d              2.000           -0.132        |                
   |                                                          |                
   |                 Pseudopotential Definition               |                
   |        Beta     l      e      Rc     scheme   norm       |                
   |          1      0   -2.003   2.105     qc      0         |                
   |          2      0   -0.163   2.105     qc      0         |                
   |          3      0    0.250   2.105     qc      0         |                
   |          4      1   -1.193   2.105     qc      0         |                
   |          5      1    0.250   2.105     qc      0         |                
   |          6      2   -0.132   2.105     qc      0         |                
   |          7      2    0.250   2.105     qc      0         |                
   |         loc     3    0.000   2.105     pn      0         |                
   |                                                          |                
   | Augmentation charge Rinner = 1.471                       |                
   | Partial core correction Rc = 1.471                       |                
   ------------------------------------------------------------                
   | "3|2.1|7|8|9|40U:50:41:42"                               |                
   ------------------------------------------------------------                
   |      Author: Chris J. Pickard, Cambridge University      |                
   ============================================================                
 
 Atomic calculation performed for Sn:
 1s2 2s2 2p6 3s2 3p6 3d10 4s2 4p6 4d10 5s2 5p2
 
 Converged in 58 iterations to an ae energy of -167539.320 eV
 
 
 Atomic calculation performed for Sn:
 1s2 2s2 2p6 3s2 3p6 3d10 4s2 4p6 4d10 5s2 5p2
 
 Exceeded max iterations: converged to 0.000001154 eV
 
   ============================================================                
   | Pseudopotential Report - Date of generation 26-04-2018   |                
   ------------------------------------------------------------                
   | Element: Sn Ionic charge: 14.00 Level of theory: PBE     |                
   | Atomic Solver: ZORA (scalar)                             |                
   |                                                          |                
   |               Reference Electronic Structure             |                
   |         Orbital         Occupation         Energy        |                
   |            4d             10.000           -0.950        |                
   |            5s              2.000           -0.388        |                
   |            5p              2.000           -0.136        |                
   |                                                          |                
   |                 Pseudopotential Definition               |                
   |        Beta     l      e      Rc     scheme   norm       |                
   |          1      0   -0.388   2.199     qc      0         |                
   |          2      0    0.250   2.199     qc      0         |                
   |          3      1   -0.136   2.199     qc      0         |                
   |          4      1    0.250   2.199     qc      0         |                
   |          5      2   -0.950   2.199     qc      0         |                
   |          6      2    0.250   2.199     qc      0         |                
   |         loc     3    0.000   2.199     pn      0         |                
   |                                                          |                
   | Augmentation charge Rinner = 1.537                       |                
   | Partial core correction Rc = 1.537                       |                
   ------------------------------------------------------------                
   | "3|2.2|7|8|9|50:51:42"                                   |                
   ------------------------------------------------------------                
   |      Author: Chris J. Pickard, Cambridge University      |                
   ============================================================                
 
 Atomic calculation performed for La:
 1s2 2s2 2p6 3s2 3p6 3d10 4s2 4p6 4d10 5s2 5p6 5d1 6s2
 
 Converged in 56 iterations to an ae energy of -230121.495 eV
 
 
 Atomic calculation performed for La:
 1s2 2s2 2p6 3s2 3p6 3d10 4s2 4p6 4d10 5s2 5p6 5d1 6s2
 
 Exceeded max iterations: converged to 0.000000907 eV
 
 Warning: ion_atom_descreen_psp: negative charge density encountered
   ============================================================                
   | Pseudopotential Report - Date of generation 26-04-2018   |                
   ------------------------------------------------------------                
   | Element: La Ionic charge: 11.00 Level of theory: PBE     |                
   | Atomic Solver: ZORA (scalar)                             |                
   |                                                          |                
   |               Reference Electronic Structure             |                
   |         Orbital         Occupation         Energy        |                
   |            5s              2.000           -1.430        |                
   |            5p              6.000           -0.823        |                
   |            6s              2.000           -0.135        |                
   |            5d              1.000           -0.114        |                
   |                                                          |                
   |                 Pseudopotential Definition               |                
   |        Beta     l      e      Rc     scheme   norm       |                
   |          1      0   -1.430   2.298     qc      0         |                
   |          2      0   -0.135   2.298     qc      0         |                
   |          3      0    0.250   2.298     qc      0         |                
   |          4      1   -0.823   2.298     qc      0         |                
   |          5      1    0.250   2.298     qc      0         |                
   |          6      2   -0.114   2.298     qc      0         |                
   |          7      2    0.250   2.298     qc      0         |                
   |         loc     2    0.000   2.298     pn      0         |                
   |                                                          |                
   | Augmentation charge Rinner = 1.606                       |                
   | Partial core correction Rc = 1.606                       |                
   ------------------------------------------------------------                
   | "2|2.3|5|6|7|50U:60:51:52(qc=4.5)"                       |                
   ------------------------------------------------------------                
   |      Author: Chris J. Pickard, Cambridge University      |                
   ============================================================                
 
 Pseudo atomic calculation performed for O 2s2 2p4
 
 Converged in 39 iterations to a total energy of -432.6554 eV
 
 
 Pseudo atomic calculation performed for Zr 4s2 4p6 4d2 5s2
 
 Converged in 38 iterations to a total energy of -1285.4931 eV
 
 
 Pseudo atomic calculation performed for Sn 4d10 5s2 5p2
 
 Converged in 48 iterations to a total energy of -2044.5414 eV
 
 
 Pseudo atomic calculation performed for La 5s2 5p6 5d1 6s2
 
 Converged in 34 iterations to a total energy of -968.0372 eV
 
 Calculation parallelised over 56 processes.
 Data is distributed by G-vector(4-way) and k-point(14-way)

 ************************************ Title ************************************
 nmr testing

 ***************************** General Parameters ******************************
  
 output verbosity                               : normal  (1)
 write checkpoint data to                       : 025.check
 type of calculation                            : Magnetic Resonance
 stress calculation                             : on
 density difference calculation                 : off
 electron localisation func (ELF) calculation   : off
 Hirshfeld analysis                             : off
 unlimited duration calculation
 timing information                             : on
 memory usage estimate                          : on
 write final potential to formatted file        : off
 write final density to formatted file          : off
 write structure in CIF formatted file          : on
 write structure in CELL formatted file         : on
 write BibTeX reference list                    : on
 write OTFG pseudopotential files               : on
 checkpoint writing                             : both castep_bin and check files
  
 output         length unit                     : A
 output           mass unit                     : amu
 output           time unit                     : ps
 output         charge unit                     : e
 output           spin unit                     : hbar/2
 output         energy unit                     : eV
 output          force unit                     : eV/A
 output       velocity unit                     : A/ps
 output       pressure unit                     : GPa
 output     inv_length unit                     : 1/A
 output      frequency unit                     : cm-1
 output force constant unit                     : eV/A**2
 output         volume unit                     : A**3
 output   IR intensity unit                     : (D/A)**2/amu
 output         dipole unit                     : D
 output         efield unit                     : eV/A/e
 output        entropy unit                     : J/mol/K
  
 wavefunctions paging                           : none
 random number generator seed                   : randomised (14723267)
 data distribution                              : optimal for this architecture
 optimization strategy                          : maximize speed(+++)

 *********************** Exchange-Correlation Parameters ***********************
  
 using functional                               : Perdew Burke Ernzerhof
 relativistic treatment                         : ZORA
 DFT+D: Semi-empirical dispersion correction    : off

 ************************* Pseudopotential Parameters **************************
  
 pseudopotential representation                 : reciprocal space
 <beta|phi> representation                      : reciprocal space
 spin-orbit coupling                            : off

 **************************** Basis Set Parameters *****************************
  
 plane wave basis set cut-off                   :   816.3416   eV
 size of standard grid                          :     1.7500
 size of   fine   gmax                          :    25.6161   1/A
 finite basis set correction                    : automatic
 number of sample energies                      :          3
           sample  spacing                      :     5.0000   eV

 **************************** Electronic Parameters ****************************
  
 number of  electrons                           :  720.0    
 net charge of system                           :  0.000    
 treating system as non-spin-polarized
 number of bands                                :        432

 ********************* Electronic Minimization Parameters **********************
  
 Method: Treating system as metallic with density mixing treatment of electrons,
         and number of  SD  steps               :          1
         and number of  CG  steps               :          4
  
 total energy / atom convergence tol.           : 0.1000E-08   eV
 eigen-energy convergence tolerance             : 0.2444E-09   eV
 max force / atom convergence tol.              : ignored
 convergence tolerance window                   :          3   cycles
 max. number of SCF cycles                      :         50
 number of fixed-spin iterations                :         10
 smearing scheme                                : Gaussian
 smearing width                                 : 0.2000       eV
 Fermi energy convergence tolerance             : 0.2721E-13   eV
 periodic dipole correction                     : NONE

 ************************** Density Mixing Parameters **************************
  
 density-mixing scheme                          : Broyden
 max. length of mixing history                  :         20
 charge density mixing amplitude                : 0.8000    
 cut-off energy for mixing                      :  816.3       eV

 *********************** Population Analysis Parameters ************************
  
 Population analysis with cutoff                :  3.000       A

 ************************ Magnetic Resonance Parameters ************************
  
 Magnetic Resonance Property                    : Chemical Shielding + EFG
 Position Operator Method                       : crystal
 max. number of MagRes CG steps                 :        250
 convergence tolerance window                   :          2   cycles
 energy convergence tolerance                   : 0.1000E-11   eV
 band convergence tolerance                     : 0.1000E-08   eV

 *******************************************************************************
  
 
                           -------------------------------
                                      Unit Cell
                           -------------------------------
        Real Lattice(A)                      Reciprocal Lattice(1/A)
  10.9022126  -0.0000788  -0.0000492        0.5763220   0.0000042   0.0000026
  -0.0000787  10.8971190  -0.0001006        0.0000042   0.5765914   0.0000053
  -0.0000492  -0.0001006  10.9021450        0.0000026   0.0000053   0.5763256
 
                       Lattice parameters(A)       Cell Angles
                    a =   10.902213          alpha =   90.001058
                    b =   10.897119          beta  =   90.000517
                    c =   10.902145          gamma =   90.000828
 
                       Current cell volume = 1295.204342       A**3
 
                           -------------------------------
                                     Cell Contents
                           -------------------------------
                         Total number of ions in cell =   88
                      Total number of species in cell =    4
                        Max number of any one species =   56
 
            xxxxxxxxxxxxxxxxxxxxxxxxxxxxxxxxxxxxxxxxxxxxxxxxxxxxxxxxxxxx
            x  Element    Atom        Fractional coordinates of atoms  x
            x            Number           u          v          w      x
            x----------------------------------------------------------x
            x  O            1         0.125015   0.124651   0.124617   x 
            x  O            2         0.625263   0.124897   0.625145   x 
            x  O            3         0.124997   0.624657   0.625394   x 
            x  O            4         0.624766   0.624894   0.124850   x 
            x  O            5         0.874604   0.374638   0.374987   x 
            x  O            6         0.874845   0.874887   0.875230   x 
            x  O            7         0.375165   0.374897   0.874742   x 
            x  O            8         0.375392   0.874644   0.375013   x 
            x  O            9         0.421171   0.126594   0.125391   x 
            x  O           10         0.330476   0.125181   0.624187   x 
            x  O           11         0.828845   0.626582   0.624627   x 
            x  O           12         0.919549   0.625184   0.125793   x 
            x  O           13         0.125403   0.419560   0.125544   x 
            x  O           14         0.623870   0.328948   0.125939   x 
            x  O           15         0.626129   0.828944   0.624045   x 
            x  O           16         0.124605   0.919554   0.624455   x 
            x  O           17         0.125205   0.124863   0.419166   x 
            x  O           18         0.124786   0.624875   0.330846   x 
            x  O           19         0.625543   0.625688   0.830214   x 
            x  O           20         0.624468   0.125698   0.919771   x 
            x  O           21         0.875547   0.669542   0.374585   x 
            x  O           22         0.875963   0.578907   0.876143   x 
            x  O           23         0.374069   0.078891   0.873863   x 
            x  O           24         0.374454   0.169536   0.375405   x 
            x  O           25         0.169152   0.374865   0.374778   x 
            x  O           26         0.080833   0.874872   0.375214   x 
            x  O           27         0.580255   0.875687   0.874446   x 
            x  O           28         0.669732   0.375697   0.875528   x 
            x  O           29         0.875386   0.376634   0.078843   x 
            x  O           30         0.374200   0.375188   0.169525   x 
            x  O           31         0.374592   0.876633   0.671126   x 
            x  O           32         0.875812   0.875201   0.580449   x 
            x  O           33         0.670527   0.874906   0.375691   x 
            x  O           34         0.079131   0.375284   0.876502   x 
            x  O           35         0.375206   0.669718   0.875376   x 
            x  O           36         0.875741   0.079394   0.375734   x 
            x  O           37         0.875309   0.375273   0.670126   x 
            x  O           38         0.374672   0.875261   0.079847   x 
            x  O           39         0.125699   0.329383   0.624272   x 
            x  O           40         0.625422   0.919686   0.124809   x 
            x  O           41         0.920243   0.123911   0.624479   x 
            x  O           42         0.329750   0.623930   0.125477   x 
            x  O           43         0.124302   0.624901   0.920512   x 
            x  O           44         0.623490   0.125287   0.329159   x 
            x  O           45         0.420154   0.625333   0.624696   x 
            x  O           46         0.829841   0.125328   0.125306   x 
            x  O           47         0.125668   0.124909   0.829460   x 
            x  O           48         0.626535   0.625298   0.420849   x 
            x  O           49         0.874770   0.169720   0.874589   x 
            x  O           50         0.374294   0.579386   0.374302   x 
            x  O           51         0.170853   0.875273   0.873462   x 
            x  O           52         0.579483   0.374912   0.374319   x 
            x  O           53         0.875494   0.873928   0.170256   x 
            x  O           54         0.374522   0.373937   0.579742   x 
            x  O           55         0.124294   0.829383   0.125715   x 
            x  O           56         0.624639   0.419686   0.625235   x 
            x  Zr           1         0.499885   0.499829   0.499903   x 
            x  Zr           2         0.249666   0.749531   0.000120   x 
            x  Zr           3         0.750356   0.999831   0.250298   x 
            x  Zr           4         0.000159   0.249521   0.749727   x 
            x  Zr           5         0.749446   0.250902   0.000067   x 
            x  Zr           6         0.499954   0.000440   0.999784   x 
            x  Zr           7         0.750113   0.500548   0.750548   x 
            x  Zr           8         0.500288   0.750945   0.749911   x 
            x  Sn           1         0.248904   0.001269   0.748486   x 
            x  Sn           2         0.000092   0.749953   0.250193   x 
            x  Sn           3         0.249924   0.249970   0.499800   x 
            x  Sn           4         0.751578   0.751182   0.498910   x 
            x  Sn           5         0.249824   0.499951   0.250101   x 
            x  Sn           6         0.001112   0.501179   0.001549   x 
            x  Sn           7         0.498419   0.251203   0.251097   x 
            x  Sn           8         0.000233   0.999925   0.499901   x 
            x  La           1         0.999496   0.000268   1.000004   x 
            x  La           2         0.749972   0.250256   0.500461   x 
            x  La           3         0.250496   0.500218   0.749989   x 
            x  La           4         0.499994   0.750228   0.249512   x 
            x  La           5         0.250609   0.749235   0.500119   x 
            x  La           6         0.749529   0.499783   0.250199   x 
            x  La           7         0.500484   0.250250   0.749958   x 
            x  La           8         0.999863   0.499273   0.500604   x 
            x  La           9         0.749478   0.750279   1.000033   x 
            x  La          10         0.250159   0.999269   0.249366   x 
            x  La          11         0.249830   0.249752   0.999512   x 
            x  La          12         0.750053   0.000318   0.750556   x 
            x  La          13         0.500474   0.999796   0.499783   x 
            x  La          14         0.000167   0.749771   0.750449   x 
            x  La          15         0.999396   0.249258   0.249825   x 
            x  La          16         0.499918   0.500350   0.999459   x 
            xxxxxxxxxxxxxxxxxxxxxxxxxxxxxxxxxxxxxxxxxxxxxxxxxxxxxxxxxxxx
 
 
                         No user defined ionic velocities
 
                           -------------------------------
                                   Details of Species
                           -------------------------------
 
                               Mass of species in AMU
                                    O   15.9994000
                                    Zr   91.2240000
                                    Sn  118.7100000
                                    La  138.9055000
 
                          Electric Quadrupole Moment (Barn)
                                    O   -0.0255800 Isotope 17
                                    Zr   -0.1760000 Isotope 91
                                    Sn    1.0000000 No Isotope Defined
                                    La    0.2000000 Isotope139
 
                          Files used for pseudopotentials:
                                    O 2|1.1|15|18|20|20:21(qc=7)
                                    Zr 3|2.1|7|8|9|40U:50:41:42
                                    Sn 3|2.2|7|8|9|50:51:42
                                    La 2|2.3|5|6|7|50U:60:51:52(qc=4.5)
 
                           -------------------------------
                              k-Points For BZ Sampling
                           -------------------------------
                       MP grid size for SCF calculation is  3  3  3
                            with an offset of   0.000  0.000  0.000
                       Number of kpoints used =            14
 
                           -------------------------------
                               Symmetry and Constraints
                           -------------------------------
 
                      Maximum deviation from symmetry =  0.00000         ANG
 
         There are no symmetry operations specified or generated for this cell
                      Number of ionic constraints     =           3
                      Point group of crystal =     1: C1, 1, 1
                      Space group of crystal =     1: P1, P 1
 
 
                         Centre of mass is constrained
             Set iprint > 1 for details of linear ionic constraints
 
                         Number of cell constraints= 0
                         Cell constraints are:  1 2 3 4 5 6
 
                         External pressure/stress (GPa)
                          0.00000   0.00000   0.00000
                                    0.00000   0.00000
                                              0.00000
  
+---------------- MEMORY AND SCRATCH DISK ESTIMATES PER PROCESS --------------+
|                                                     Memory          Disk    |
| Baseline code, static data and system overhead      322.0 MB         0.0 MB |
| BLAS internal memory storage                          0.0 MB         0.0 MB |
| Model and support data                             1319.1 MB         0.0 MB |
| Electronic energy minimisation requirements         381.7 MB         0.0 MB |
| Force calculation requirements                       24.1 MB         0.0 MB |
| Stress calculation requirements                      28.3 MB         0.0 MB |
|                                               ----------------------------- |
| Approx. total storage required per process         2022.9 MB         0.0 MB |
|                                                                             |
| Requirements will fluctuate during execution and may exceed these estimates |
+-----------------------------------------------------------------------------+
Calculating finite basis set correction with  3 cut-off energies.
Calculating total energy with cut-off of  806.342eV.
------------------------------------------------------------------------ <-- SCF
SCF loop      Energy           Fermi           Energy gain       Timer   <-- SCF
                               energy          per atom          (sec)   <-- SCF
------------------------------------------------------------------------ <-- SCF
Initial  -5.62649940E+004  0.00000000E+000                        75.83  <-- SCF
      1  -6.45281033E+004  7.50768730E+000   9.38989694E+001     216.50  <-- SCF
      2  -6.70871807E+004  6.93485060E+000   2.90804249E+001     309.44  <-- SCF
      3  -6.71704215E+004  6.46996894E+000   9.45918385E-001     412.73  <-- SCF
      4  -6.71642493E+004  7.64281646E+000  -7.01379832E-002     541.82  <-- SCF
      5  -6.70612438E+004  7.01923852E+000  -1.17051789E+000     670.20  <-- SCF
      6  -6.70626162E+004  6.89997410E+000   1.55962064E-002     829.67  <-- SCF
      7  -6.70622992E+004  6.98645476E+000  -3.60306206E-003     966.65  <-- SCF
      8  -6.70623802E+004  6.98871878E+000   9.20743659E-004    1148.78  <-- SCF
      9  -6.70624009E+004  6.98770045E+000   2.35603932E-004    1300.41  <-- SCF
     10  -6.70624017E+004  6.98508433E+000   9.27634396E-006    1440.70  <-- SCF
     11  -6.70624011E+004  6.98656176E+000  -7.32972555E-006    1586.06  <-- SCF
     12  -6.70624013E+004  6.98636941E+000   2.68127164E-006    1739.39  <-- SCF
     13  -6.70624013E+004  6.98580521E+000   2.06500438E-007    1875.50  <-- SCF
     14  -6.70624013E+004  6.98555533E+000  -4.08135243E-007    2011.94  <-- SCF
     15  -6.70624013E+004  6.98515946E+000  -7.40745601E-008    2161.11  <-- SCF
     16  -6.70624013E+004  6.98496275E+000   2.12275583E-009    2288.34  <-- SCF
     17  -6.70624013E+004  6.98489347E+000  -8.92074918E-010    2408.23  <-- SCF
     18  -6.70624013E+004  6.98483500E+000   1.42866979E-010    2507.45  <-- SCF
------------------------------------------------------------------------ <-- SCF
 
Final energy, E             =  -67062.40130033     eV
Final free energy (E-TS)    =  -67062.40130033     eV
(energies not corrected for finite basis set)
 
NB est. 0K energy (E-0.5TS)      =  -67062.40130033     eV
 
Calculating total energy with cut-off of  811.342eV.
------------------------------------------------------------------------ <-- SCF
SCF loop      Energy           Fermi           Energy gain       Timer   <-- SCF
                               energy          per atom          (sec)   <-- SCF
------------------------------------------------------------------------ <-- SCF
Initial  -6.70624013E+004  0.00000000E+000                      2543.27  <-- SCF
      1  -6.70624037E+004  6.98473875E+000   2.75680284E-005    2655.75  <-- SCF
      2  -6.70624037E+004  6.98473875E+000   3.81634824E-010    2756.80  <-- SCF
      3  -6.70624037E+004  6.98476842E+000   1.56522306E-008    2871.58  <-- SCF
      4  -6.70624037E+004  6.98477462E+000  -1.36356407E-009    2979.01  <-- SCF
      5  -6.70624037E+004  6.98478469E+000  -3.28903410E-010    3068.07  <-- SCF
      6  -6.70624037E+004  6.98479779E+000  -7.80424936E-011    3159.17  <-- SCF
------------------------------------------------------------------------ <-- SCF
 
Final energy, E             =  -67062.40372751     eV
Final free energy (E-TS)    =  -67062.40372751     eV
(energies not corrected for finite basis set)
 
NB est. 0K energy (E-0.5TS)      =  -67062.40372751     eV
 
Calculating total energy with cut-off of  816.342eV.
------------------------------------------------------------------------ <-- SCF
SCF loop      Energy           Fermi           Energy gain       Timer   <-- SCF
                               energy          per atom          (sec)   <-- SCF
------------------------------------------------------------------------ <-- SCF
Initial  -6.70624037E+004  0.00000000E+000                      3194.99  <-- SCF
      1  -6.70624067E+004  6.98483119E+000   3.37448820E-005    3306.92  <-- SCF
      2  -6.70624067E+004  6.98483119E+000   2.16690960E-010    3401.20  <-- SCF
      3  -6.70624067E+004  6.98481502E+000   2.09186225E-008    3490.42  <-- SCF
      4  -6.70624067E+004  6.98481355E+000   6.34183146E-010    3579.72  <-- SCF
      5  -6.70624067E+004  6.98480840E+000  -1.15165409E-010    3670.09  <-- SCF
------------------------------------------------------------------------ <-- SCF
 
Final energy, E             =  -67062.40669896     eV
Final free energy (E-TS)    =  -67062.40669896     eV
(energies not corrected for finite basis set)
 
NB est. 0K energy (E-0.5TS)      =  -67062.40669896     eV
 
 For future reference: finite basis dEtot/dlog(Ecut) =      -0.439934eV
 Total energy corrected for finite basis set =  -67062.406693 eV
 
  =====================================================================
  +       Calculation of Nuclear Magnetic Resonance Parameters        +
  + ================================================================= +
 
  Starting Calculation of Electric Field Gradient Tensors         |<-- EFG
  +---------------- MEMORY AND SCRATCH DISK ESTIMATES PER PROCESS --------------+
  |                                                     Memory          Disk    |
  | Model and support data                             1316.9 MB         0.0 MB |
  | NMR EFG calculation requirements                    367.4 MB         0.0 MB |
  |                                               ----------------------------- |
  | Approx. total storage required per process         1684.3 MB         0.0 MB |
  |                                                                             |
  | Requirements will fluctuate during execution and may exceed these estimates |
  +-----------------------------------------------------------------------------+
  Total Time for EFG Tensors                     404.77 sec       |<-- EFG
 
  Starting Calculation of Chemical Shielding Tensors              |<-- NMR
  +---------------- MEMORY AND SCRATCH DISK ESTIMATES PER PROCESS --------------+
  |                                                     Memory          Disk    |
  | Model and support data                             1316.9 MB         0.0 MB |
  | NMR chemical shift calculation requirements         564.3 MB         0.0 MB |
  |                                               ----------------------------- |
  | Approx. total storage required per process         1881.1 MB         0.0 MB |
  |                                                                             |
  | Requirements will fluctuate during execution and may exceed these estimates |
  +-----------------------------------------------------------------------------+
  Starting k-point:   1 of   1                                    |<-- NMR
  Total Time for step 1 of 6:                   3304.53 sec       |<-- NMR
  Total Time for step 2 of 6:                   3319.25 sec       |<-- NMR
  Total Time for step 3 of 6:                   3293.62 sec       |<-- NMR
  Total Time for step 4 of 6:                   3302.66 sec       |<-- NMR
  Total Time for step 5 of 6:                   3312.96 sec       |<-- NMR
  Total Time for step 6 of 6:                   3298.86 sec       |<-- NMR
  Total Time for Chemical Shielding Tensors    29270.57 sec       |<-- NMR
 
  ========================================================================
  |           Chemical Shielding and Electric Field Gradient Tensors     |
  |----------------------------------------------------------------------|
  |     Nucleus                Shielding tensor             EFG Tensor   |
  |  Species       Ion    Iso(ppm)   Aniso(ppm)  Asym    Cq(MHz)    Eta  |
  |    O           1     -318.14       8.99      0.42  -6.041E-02   0.54 |
  |    O           2     -317.81       8.62      0.86   3.942E-02   0.55 |
  |    O           3     -318.13       9.05      0.40  -6.152E-02   0.56 |
  |    O           4     -317.82       8.45      0.88   4.083E-02   0.52 |
  |    O           5     -318.11       9.24      0.35  -6.394E-02   0.52 |
  |    O           6     -317.79       8.13      0.87   3.983E-02   0.42 |
  |    O           7     -317.80       8.32      0.81   4.049E-02   0.46 |
  |    O           8     -318.11       8.97      0.37  -6.364E-02   0.53 |
  |    O           9      -81.32      88.17      0.18  -3.173E+00   0.07 |
  |    O          10      -12.55      58.40      0.51   3.898E+00   0.83 |
  |    O          11      -81.21      87.15      0.18  -3.173E+00   0.07 |
  |    O          12      -12.45      58.45      0.51   3.900E+00   0.83 |
  |    O          13       -9.03      60.45      0.55   3.875E+00   0.87 |
  |    O          14      -86.40      91.86      0.20  -3.115E+00   0.10 |
  |    O          15      -86.20      90.39      0.20  -3.117E+00   0.10 |
  |    O          16       -9.07      60.47      0.55   3.876E+00   0.87 |
  |    O          17      -11.07      57.68      0.88   3.814E+00   0.92 |
  |    O          18      -11.27      57.71      0.88   3.812E+00   0.92 |
  |    O          19     -163.25     157.49      0.79   1.039E+00   0.90 |
  |    O          20     -163.30     157.23      0.80   1.041E+00   0.89 |
  |    O          21       -9.14      60.28      0.56   3.873E+00   0.87 |
  |    O          22      -86.06      90.43      0.20  -3.117E+00   0.10 |
  |    O          23      -85.31      87.73      0.21  -3.123E+00   0.11 |
  |    O          24       -9.14      60.33      0.56   3.874E+00   0.87 |
  |    O          25      -11.16      57.61      0.88   3.813E+00   0.92 |
  |    O          26      -10.86      57.83      0.87   3.812E+00   0.92 |
  |    O          27     -163.38     159.74      0.78   1.050E+00   0.88 |
  |    O          28     -163.38     160.99      0.78   1.053E+00   0.87 |
  |    O          29      -81.44      89.04      0.17  -3.167E+00   0.07 |
  |    O          30      -12.36      58.14      0.51   3.900E+00   0.83 |
  |    O          31      -82.07      90.99      0.17  -3.163E+00   0.06 |
  |    O          32      -12.32      58.28      0.51   3.900E+00   0.83 |
  |    O          33      -89.75      93.29      0.19  -3.234E+00   0.10 |
  |    O          34      -86.10      81.55      0.25  -3.116E+00   0.07 |
  |    O          35     -163.96     149.01      0.80   1.025E+00   0.81 |
  |    O          36      -88.19      87.59      0.27  -3.191E+00   0.09 |
  |    O          37     -160.27     147.32      0.82   1.085E+00   0.69 |
  |    O          38     -160.23     147.34      0.82   1.083E+00   0.69 |
  |    O          39      -87.84      85.20      0.28  -3.196E+00   0.09 |
  |    O          40     -163.95     148.97      0.80   1.023E+00   0.81 |
  |    O          41      -92.15      79.07      0.17  -3.237E+00   0.11 |
  |    O          42      -92.02      77.60      0.17  -3.237E+00   0.11 |
  |    O          43      -90.06      96.23      0.18  -3.226E+00   0.09 |
  |    O          44      -86.73      83.51      0.26  -3.111E+00   0.07 |
  |    O          45     -160.34     147.73      0.82   1.083E+00   0.69 |
  |    O          46     -160.39     146.91      0.82   1.081E+00   0.69 |
  |    O          47      -89.56      94.36      0.19  -3.230E+00   0.10 |
  |    O          48      -86.62      84.06      0.25  -3.110E+00   0.07 |
  |    O          49     -163.93     148.49      0.80   1.023E+00   0.82 |
  |    O          50      -87.72      84.89      0.28  -3.196E+00   0.10 |
  |    O          51      -86.53      83.33      0.25  -3.110E+00   0.07 |
  |    O          52      -89.65      92.65      0.19  -3.235E+00   0.10 |
  |    O          53      -91.94      77.53      0.17  -3.239E+00   0.11 |
  |    O          54      -91.82      76.82      0.17  -3.240E+00   0.12 |
  |    O          55      -87.83      85.55      0.27  -3.196E+00   0.09 |
  |    O          56     -163.92     149.34      0.79   1.023E+00   0.81 |
  |    Zr          1     1614.32    -120.17      0.14  -3.644E+01   0.12 |
  |    Zr          2     1614.04    -120.05      0.14  -3.647E+01   0.12 |
  |    Zr          3     1614.10    -120.11      0.14  -3.646E+01   0.12 |
  |    Zr          4     1613.89    -120.09      0.14  -3.647E+01   0.11 |
  |    Zr          5     1634.42    -124.07      0.14  -3.837E+01   0.09 |
  |    Zr          6     1634.42    -124.23      0.16  -3.836E+01   0.10 |
  |    Zr          7     1634.53    -124.35      0.17  -3.841E+01   0.09 |
  |    Zr          8     1634.41    -124.21      0.15  -3.839E+01   0.11 |
  |    Sn          1     3248.76     -47.85      0.34   1.257E+02   0.15 |
  |    Sn          2     3253.37     -61.88      0.26   1.231E+02   0.13 |
  |    Sn          3     3253.38     -61.82      0.27   1.231E+02   0.13 |
  |    Sn          4     3248.83     -47.87      0.29   1.257E+02   0.16 |
  |    Sn          5     3253.44     -61.79      0.27   1.231E+02   0.13 |
  |    Sn          6     3248.81     -47.94      0.34   1.256E+02   0.15 |
  |    Sn          7     3248.95     -47.97      0.29   1.258E+02   0.17 |
  |    Sn          8     3253.61     -61.96      0.28   1.232E+02   0.12 |
  |    La          1     4701.92     759.57      0.04  -8.520E+01   0.09 |
  |    La          2     4702.45     760.97      0.04  -8.528E+01   0.09 |
  |    La          3     4701.97     759.70      0.04  -8.523E+01   0.09 |
  |    La          4     4702.02     759.92      0.04  -8.521E+01   0.10 |
  |    La          5     4610.32     504.22      0.07  -7.750E+01   0.07 |
  |    La          6     4605.68     532.03      0.07  -7.790E+01   0.11 |
  |    La          7     4700.59     757.13      0.03  -8.250E+01   0.08 |
  |    La          8     4610.06     502.57      0.07  -7.739E+01   0.07 |
  |    La          9     4700.82     757.94      0.03  -8.252E+01   0.08 |
  |    La         10     4610.07     503.47      0.07  -7.747E+01   0.07 |
  |    La         11     4605.13     530.38      0.07  -7.784E+01   0.11 |
  |    La         12     4701.02     758.56      0.03  -8.253E+01   0.08 |
  |    La         13     4605.79     532.16      0.07  -7.788E+01   0.12 |
  |    La         14     4605.81     532.38      0.07  -7.795E+01   0.11 |
  |    La         15     4610.33     504.32      0.07  -7.751E+01   0.07 |
  |    La         16     4700.86     758.95      0.03  -8.256E+01   0.08 |
  ========================================================================
 
 *********************** Forces ***********************
 *                                                    *
 *            Cartesian components (eV/A)             *
 * -------------------------------------------------- *
 *                   x            y            z      *
 *                                                    *
 * O         1     -0.00255      0.00103     -0.00011 *
 * O         2     -0.00004      0.00388      0.00151 *
 * O         3      0.00578      0.00043     -0.00108 *
 * O         4     -0.00123      0.00333     -0.00216 *
 * O         5      0.00365      0.00047      0.00131 *
 * O         6      0.00005      0.00435      0.00194 *
 * O         7      0.00119      0.00441      0.00132 *
 * O         8     -0.00285      0.00069     -0.00604 *
 * O         9     -0.01162      0.00943      0.00657 *
 * O        10      0.00569     -0.00002      0.00194 *
 * O        11      0.01227      0.01028     -0.00436 *
 * O        12     -0.00403     -0.00161     -0.00337 *
 * O        13      0.00102     -0.00592      0.00397 *
 * O        14     -0.00979      0.01193      0.00838 *
 * O        15      0.00359      0.00978     -0.00489 *
 * O        16      0.00456     -0.00440     -0.00048 *
 * O        17      0.00424     -0.00020     -0.00451 *
 * O        18     -0.00006     -0.00167      0.00262 *
 * O        19     -0.00136      0.00648     -0.01207 *
 * O        20     -0.00588      0.00140      0.01606 *
 * O        21      0.00410     -0.00713      0.00068 *
 * O        22      0.00848      0.00924      0.00895 *
 * O        23     -0.00429      0.00798     -0.00160 *
 * O        24     -0.00335     -0.00631     -0.00345 *
 * O        25     -0.00176     -0.00113     -0.00476 *
 * O        26      0.00428     -0.00257      0.00026 *
 * O        27     -0.01065      0.00566      0.00156 *
 * O        28      0.00693      0.00308      0.00660 *
 * O        29      0.00270      0.01147      0.01250 *
 * O        30      0.00199     -0.00209     -0.00715 *
 * O        31     -0.00773      0.01456     -0.01240 *
 * O        32     -0.00062     -0.00239      0.00531 *
 * O        33      0.00882     -0.00451      0.00228 *
 * O        34      0.00988      0.00497     -0.00425 *
 * O        35     -0.00466      0.01175      0.00253 *
 * O        36      0.00046      0.00542      0.00945 *
 * O        37      0.00183     -0.00910      0.00099 *
 * O        38     -0.00167     -0.00935      0.00023 *
 * O        39      0.01225      0.00233      0.00052 *
 * O        40      0.00360      0.01101      0.00377 *
 * O        41      0.00514     -0.00765     -0.00772 *
 * O        42     -0.00486     -0.00687      0.00460 *
 * O        43     -0.00470     -0.00938      0.00346 *
 * O        44      0.00284      0.00967      0.00705 *
 * O        45     -0.00091     -0.00201     -0.00066 *
 * O        46      0.00045     -0.00097      0.00114 *
 * O        47      0.00489     -0.00873     -0.00275 *
 * O        48     -0.00266      0.00700     -0.00991 *
 * O        49      0.00014      0.01302     -0.00081 *
 * O        50      0.00298      0.00461     -0.01029 *
 * O        51     -0.00812      0.00616      0.00299 *
 * O        52     -0.00674     -0.00532     -0.00417 *
 * O        53      0.00669     -0.00054      0.00538 *
 * O        54     -0.00370     -0.00094     -0.00483 *
 * O        55     -0.00955      0.00259     -0.00323 *
 * O        56     -0.00404      0.01156     -0.00323 *
 * Zr        1      0.00341     -0.01070     -0.00144 *
 * Zr        2     -0.00996     -0.00761      0.00179 *
 * Zr        3      0.00354     -0.01269      0.00578 *
 * Zr        4     -0.00345     -0.00485     -0.00455 *
 * Zr        5     -0.01215     -0.00329     -0.00714 *
 * Zr        6      0.00749     -0.00065     -0.00365 *
 * Zr        7      0.00097     -0.00373      0.00309 *
 * Zr        8      0.00737      0.00706     -0.00016 *
 * Sn        1     -0.00022     -0.00643     -0.00896 *
 * Sn        2     -0.00262     -0.00833      0.00291 *
 * Sn        3      0.00032     -0.00670     -0.00347 *
 * Sn        4      0.00473      0.00591      0.00180 *
 * Sn        5     -0.00646     -0.00977      0.00046 *
 * Sn        6     -0.00130     -0.00405      0.00446 *
 * Sn        7     -0.00241      0.00449      0.00688 *
 * Sn        8      0.00716     -0.01002      0.00531 *
 * La        1      0.00260     -0.01822     -0.00610 *
 * La        2     -0.00831     -0.01098     -0.00376 *
 * La        3     -0.00960     -0.02051     -0.00097 *
 * La        4      0.00831     -0.01412      0.00953 *
 * La        5     -0.00999      0.00933     -0.00167 *
 * La        6      0.00299      0.00760     -0.00294 *
 * La        7     -0.01593     -0.01680     -0.00872 *
 * La        8     -0.00253      0.00575     -0.00734 *
 * La        9      0.01838     -0.01156      0.00567 *
 * La       10     -0.00016      0.00559      0.01094 *
 * La       11      0.00652      0.00745     -0.00060 *
 * La       12      0.00429     -0.00552     -0.01596 *
 * La       13      0.00277      0.00614      0.00344 *
 * La       14     -0.00792      0.00787     -0.00597 *
 * La       15      0.00924      0.01416      0.00224 *
 * La       16     -0.00816     -0.00394      0.01356 *
 *                                                    *
 ******************************************************
 
 ***************** Stress Tensor *****************
 *                                               *
 *          Cartesian components (GPa)           *
 * --------------------------------------------- *
 *             x             y             z     *
 *                                               *
 *  x      0.027778     -0.001187     -0.000245  *
 *  y     -0.001187     -0.041888     -0.001547  *
 *  z     -0.000245     -0.001547      0.027581  *
 *                                               *
 *  Pressure:   -0.0045                          *
 *                                               *
 *************************************************
 
 Pseudo atomic calculation performed for O 2s2 2p4
 
 Converged in 39 iterations to a total energy of -432.6554 eV
 
 
 Pseudo atomic calculation performed for Zr 4s2 4p6 4d2 5s2
 
 Converged in 38 iterations to a total energy of -1285.4931 eV
 
 
 Pseudo atomic calculation performed for Sn 4d10 5s2 5p2
 
 Converged in 48 iterations to a total energy of -2044.5414 eV
 
 
 Pseudo atomic calculation performed for La 5s2 5p6 5d1 6s2
 
 Converged in 34 iterations to a total energy of -968.0372 eV
 
Charge spilling parameter for spin component 1 = 0.24%
 
     Atomic Populations (Mulliken)
     -----------------------------
Species   Ion     s      p      d      f     Total  Charge (e)
==============================================================
  O        1     1.87   5.00   0.00   0.00   6.87    -0.87
  O        2     1.87   5.00   0.00   0.00   6.87    -0.87
  O        3     1.87   5.00   0.00   0.00   6.87    -0.87
  O        4     1.87   5.00   0.00   0.00   6.87    -0.87
  O        5     1.87   5.00   0.00   0.00   6.87    -0.87
  O        6     1.87   5.00   0.00   0.00   6.87    -0.87
  O        7     1.87   5.00   0.00   0.00   6.87    -0.87
  O        8     1.87   5.00   0.00   0.00   6.87    -0.87
  O        9     1.87   4.99   0.00   0.00   6.86    -0.86
  O       10     1.88   5.03   0.00   0.00   6.91    -0.91
  O       11     1.87   4.99   0.00   0.00   6.86    -0.86
  O       12     1.88   5.03   0.00   0.00   6.91    -0.91
  O       13     1.88   5.02   0.00   0.00   6.91    -0.91
  O       14     1.87   4.99   0.00   0.00   6.85    -0.85
  O       15     1.87   4.99   0.00   0.00   6.85    -0.85
  O       16     1.88   5.02   0.00   0.00   6.91    -0.91
  O       17     1.88   5.02   0.00   0.00   6.91    -0.91
  O       18     1.88   5.02   0.00   0.00   6.91    -0.91
  O       19     1.86   4.95   0.00   0.00   6.80    -0.80
  O       20     1.86   4.95   0.00   0.00   6.80    -0.80
  O       21     1.88   5.02   0.00   0.00   6.91    -0.91
  O       22     1.87   4.99   0.00   0.00   6.85    -0.85
  O       23     1.87   4.99   0.00   0.00   6.86    -0.86
  O       24     1.88   5.02   0.00   0.00   6.91    -0.91
  O       25     1.88   5.02   0.00   0.00   6.91    -0.91
  O       26     1.88   5.02   0.00   0.00   6.91    -0.91
  O       27     1.86   4.95   0.00   0.00   6.80    -0.80
  O       28     1.86   4.95   0.00   0.00   6.80    -0.80
  O       29     1.87   4.99   0.00   0.00   6.86    -0.86
  O       30     1.88   5.03   0.00   0.00   6.91    -0.91
  O       31     1.87   4.99   0.00   0.00   6.86    -0.86
  O       32     1.88   5.03   0.00   0.00   6.91    -0.91
  O       33     1.87   4.99   0.00   0.00   6.86    -0.86
  O       34     1.87   4.99   0.00   0.00   6.85    -0.85
  O       35     1.86   4.95   0.00   0.00   6.80    -0.80
  O       36     1.87   4.99   0.00   0.00   6.86    -0.86
  O       37     1.86   4.95   0.00   0.00   6.80    -0.80
  O       38     1.86   4.95   0.00   0.00   6.80    -0.80
  O       39     1.87   4.99   0.00   0.00   6.86    -0.86
  O       40     1.86   4.95   0.00   0.00   6.80    -0.80
  O       41     1.87   4.99   0.00   0.00   6.86    -0.86
  O       42     1.87   4.99   0.00   0.00   6.86    -0.86
  O       43     1.87   4.99   0.00   0.00   6.86    -0.86
  O       44     1.87   4.99   0.00   0.00   6.85    -0.85
  O       45     1.86   4.95   0.00   0.00   6.80    -0.80
  O       46     1.86   4.95   0.00   0.00   6.80    -0.80
  O       47     1.87   4.99   0.00   0.00   6.86    -0.86
  O       48     1.87   4.99   0.00   0.00   6.85    -0.85
  O       49     1.86   4.95   0.00   0.00   6.80    -0.80
  O       50     1.87   4.99   0.00   0.00   6.86    -0.86
  O       51     1.87   4.99   0.00   0.00   6.85    -0.85
  O       52     1.87   4.99   0.00   0.00   6.86    -0.86
  O       53     1.87   4.99   0.00   0.00   6.86    -0.86
  O       54     1.87   4.99   0.00   0.00   6.86    -0.86
  O       55     1.87   4.99   0.00   0.00   6.86    -0.86
  O       56     1.86   4.95   0.00   0.00   6.80    -0.80
  Zr       1     2.37   6.49   1.92   0.00  10.78     1.22
  Zr       2     2.37   6.49   1.92   0.00  10.78     1.22
  Zr       3     2.37   6.49   1.92   0.00  10.78     1.22
  Zr       4     2.37   6.49   1.92   0.00  10.78     1.22
  Zr       5     2.37   6.47   1.93   0.00  10.76     1.24
  Zr       6     2.37   6.47   1.93   0.00  10.76     1.24
  Zr       7     2.37   6.47   1.93   0.00  10.76     1.24
  Zr       8     2.37   6.47   1.93   0.00  10.76     1.24
  Sn       1     1.05   1.31  10.00   0.00  12.36     1.64
  Sn       2     1.05   1.31  10.00   0.00  12.36     1.64
  Sn       3     1.05   1.31  10.00   0.00  12.36     1.64
  Sn       4     1.05   1.31  10.00   0.00  12.36     1.64
  Sn       5     1.05   1.31  10.00   0.00  12.36     1.64
  Sn       6     1.05   1.31  10.00   0.00  12.36     1.64
  Sn       7     1.05   1.31  10.00   0.00  12.36     1.64
  Sn       8     1.05   1.31  10.00   0.00  12.36     1.64
  La       1     2.05   6.16   1.19   0.00   9.40     1.60
  La       2     2.05   6.16   1.19   0.00   9.40     1.60
  La       3     2.05   6.16   1.19   0.00   9.40     1.60
  La       4     2.05   6.16   1.19   0.00   9.40     1.60
  La       5     2.09   6.19   1.19   0.00   9.48     1.52
  La       6     2.08   6.19   1.19   0.00   9.46     1.54
  La       7     2.04   6.16   1.19   0.00   9.39     1.61
  La       8     2.09   6.19   1.19   0.00   9.48     1.52
  La       9     2.04   6.16   1.19   0.00   9.39     1.61
  La      10     2.09   6.19   1.19   0.00   9.48     1.52
  La      11     2.08   6.19   1.19   0.00   9.46     1.54
  La      12     2.04   6.16   1.19   0.00   9.39     1.61
  La      13     2.08   6.19   1.19   0.00   9.46     1.54
  La      14     2.08   6.19   1.19   0.00   9.46     1.54
  La      15     2.09   6.19   1.19   0.00   9.48     1.52
  La      16     2.04   6.16   1.19   0.00   9.39     1.61
==============================================================
 
            Bond              Population      Length (A)
============================================================
         O 47 -- Sn 1              0.35        2.09755
         O 43 -- Sn 6              0.35        2.09810
         O 52 -- Sn 7              0.35        2.09832
         O 33 -- Sn 4              0.35        2.09838
         O 50 -- Sn 5              0.34        2.10335
         O 55 -- Sn 2              0.34        2.10343
         O 36 -- Sn 8              0.34        2.10346
         O 39 -- Sn 3              0.34        2.10347
         O 54 -- Sn 3              0.35        2.10465
         O 53 -- Sn 2              0.34        2.10473
         O 41 -- Sn 8              0.34        2.10489
         O 42 -- Sn 5              0.34        2.10489
         O 29 -- Sn 6              0.35        2.10495
         O 9  -- Sn 7              0.35        2.10502
         O 11 -- Sn 4              0.35        2.10517
         O 31 -- Sn 1              0.35        2.10562
         O 23 -- Sn 1              0.34        2.10851
         O 28 -- Zr 5              0.42        2.10907
         O 22 -- Sn 6              0.34        2.10910
         O 16 -- Sn 8              0.34        2.10940
         O 15 -- Sn 4              0.34        2.10944
         O 14 -- Sn 7              0.34        2.10955
         O 30 -- Sn 7              0.34        2.10958
         O 10 -- Sn 1              0.34        2.10964
         O 21 -- Sn 2              0.34        2.10965
         O 24 -- Sn 3              0.34        2.10967
         O 27 -- Zr 8              0.42        2.10975
         O 32 -- Sn 4              0.34        2.10975
         O 13 -- Sn 5              0.34        2.10982
         O 12 -- Sn 6              0.34        2.10985
         O 13 -- Sn 6              0.34        2.11060
         O 24 -- Sn 7              0.34        2.11073
         O 21 -- Sn 4              0.33        2.11075
         O 16 -- Sn 1              0.33        2.11130
         O 19 -- Zr 7              0.42        2.11148
         O 32 -- Sn 8              0.33        2.11149
         O 30 -- Sn 5              0.33        2.11158
         O 12 -- Sn 2              0.33        2.11160
         O 10 -- Sn 3              0.33        2.11174
         O 34 -- Sn 6              0.34        2.11284
         O 48 -- Sn 4              0.34        2.11289
         O 43 -- Zr 2              0.44        2.11319
         O 51 -- Sn 1              0.34        2.11321
         O 44 -- Sn 7              0.34        2.11337
         O 20 -- Zr 6              0.42        2.11347
         O 47 -- Zr 4              0.43        2.11470
         O 28 -- Zr 7              0.42        2.11555
         O 45 -- Zr 1              0.43        2.11589
         O 26 -- Sn 8              0.34        2.11589
         O 49 -- Zr 4              0.43        2.11614
         O 46 -- Zr 3              0.43        2.11615
         O 18 -- Sn 2              0.34        2.11637
         O 25 -- Sn 5              0.34        2.11639
         O 35 -- Zr 2              0.43        2.11643
         O 33 -- Zr 3              0.43        2.11650
         O 56 -- Zr 1              0.43        2.11651
         O 17 -- Sn 3              0.34        2.11663
         O 52 -- Zr 1              0.43        2.11673
         O 14 -- Zr 5              0.45        2.11680
         O 27 -- Zr 6              0.42        2.11701
         O 37 -- Zr 4              0.42        2.11747
         O 20 -- Zr 5              0.42        2.11760
         O 17 -- Sn 8              0.33        2.11769
         O 26 -- Sn 2              0.33        2.11790
         O 25 -- Sn 3              0.33        2.11792
         O 22 -- Zr 7              0.45        2.11811
         O 18 -- Sn 5              0.33        2.11811
         O 15 -- Zr 8              0.45        2.11841
         O 38 -- Zr 6              0.42        2.11853
         O 40 -- Zr 3              0.43        2.11885
         O 38 -- Zr 2              0.42        2.11894
         O 36 -- Zr 3              0.44        2.11903
         O 31 -- Zr 8              0.45        2.11935
         O 19 -- Zr 8              0.42        2.11999
         O 37 -- Zr 7              0.42        2.12023
         O 41 -- Zr 4              0.44        2.12063
         O 23 -- Zr 6              0.45        2.12110
         O 29 -- Zr 5              0.45        2.12129
         O 55 -- Zr 2              0.44        2.12139
         O 45 -- Zr 8              0.42        2.12139
         O 39 -- Zr 4              0.44        2.12163
         O 50 -- Zr 1              0.44        2.12165
         O 9  -- Zr 6              0.45        2.12197
         O 40 -- Zr 6              0.43        2.12211
         O 42 -- Zr 2              0.44        2.12213
         O 46 -- Zr 5              0.42        2.12251
         O 53 -- Zr 3              0.44        2.12253
         O 54 -- Zr 1              0.44        2.12311
         O 11 -- Zr 7              0.45        2.12313
         O 56 -- Zr 7              0.42        2.12463
         O 35 -- Zr 8              0.42        2.12464
         O 48 -- Zr 1              0.45        2.12572
         O 49 -- Zr 5              0.42        2.12620
         O 44 -- Zr 3              0.45        2.12631
         O 51 -- Zr 2              0.45        2.12665
         O 34 -- Zr 4              0.45        2.12827
         O 5  -- La 2              0.17        2.35683
         O 1  -- La 1              0.17        2.35696
         O 8  -- La 4              0.17        2.35701
         O 3  -- La 3              0.17        2.35713
         O 7  -- La 3              0.19        2.35843
         O 7  -- La 7              0.17        2.35847
         O 2  -- La 2              0.19        2.35849
         O 4  -- La 4              0.19        2.35858
         O 6  -- La 9              0.17        2.35864
         O 4  -- La 16             0.17        2.35864
         O 2  -- La 12             0.17        2.35867
         O 6  -- La 1              0.19        2.35878
         O 6  -- La 12             0.18        2.35940
         O 4  -- La 9              0.18        2.35950
         O 7  -- La 16             0.18        2.35952
         O 2  -- La 7              0.18        2.35968
         O 3  -- La 14             0.16        2.36002
         O 8  -- La 13             0.16        2.36002
         O 5  -- La 6              0.16        2.36010
         O 1  -- La 11             0.16        2.36017
         O 6  -- La 14             0.18        2.36142
         O 4  -- La 6              0.18        2.36145
         O 2  -- La 13             0.18        2.36158
         O 7  -- La 11             0.18        2.36161
         O 1  -- La 10             0.17        2.36178
         O 8  -- La 5              0.17        2.36192
         O 3  -- La 8              0.17        2.36193
         O 5  -- La 15             0.17        2.36213
         O 1  -- La 15             0.17        2.36278
         O 3  -- La 5              0.17        2.36298
         O 5  -- La 8              0.17        2.36323
         O 8  -- La 10             0.17        2.36323
         O 46 -- La 15             0.14        2.66149
         O 45 -- La 5              0.14        2.66162
         O 38 -- La 10             0.14        2.66165
         O 49 -- La 12             0.12        2.66173
         O 35 -- La 16             0.12        2.66177
         O 37 -- La 8              0.14        2.66187
         O 40 -- La 9              0.12        2.66225
         O 56 -- La 7              0.12        2.66273
         O 27 -- La 12             0.13        2.66377
         O 19 -- La 9              0.13        2.66391
         O 20 -- La 7              0.13        2.66397
         O 28 -- La 16             0.13        2.66424
         O 52 -- La 6              0.17        2.66825
         O 33 -- La 13             0.17        2.66827
         O 47 -- La 11             0.17        2.66834
         O 43 -- La 14             0.17        2.66847
         O 18 -- La 5              0.24        2.66901
         O 50 -- La 5              0.18        2.66936
         O 25 -- La 8              0.24        2.66946
         O 56 -- La 2              0.14        2.66952
         O 55 -- La 10             0.18        2.66968
         O 17 -- La 15             0.24        2.66969
         O 39 -- La 8              0.18        2.66970
         O 26 -- La 10             0.24        2.66980
         O 36 -- La 15             0.18        2.66983
         O 40 -- La 4              0.14        2.66988
         O 49 -- La 1              0.14        2.66990
         O 35 -- La 3              0.14        2.66994
         O 44 -- La 13             0.19        2.67003
         O 48 -- La 6              0.19        2.67021
         O 51 -- La 14             0.19        2.67049
         O 34 -- La 11             0.19        2.67079
         O 10 -- La 13             0.23        2.67231
         O 32 -- La 14             0.23        2.67232
         O 30 -- La 11             0.23        2.67248
         O 12 -- La 6              0.23        2.67259
         O 42 -- La 16             0.17        2.67261
         O 37 -- La 2              0.13        2.67290
         O 46 -- La 1              0.13        2.67291
         O 20 -- La 12             0.12        2.67294
         O 38 -- La 4              0.13        2.67295
         O 19 -- La 16             0.12        2.67316
         O 41 -- La 12             0.17        2.67318
         O 45 -- La 3              0.13        2.67319
         O 27 -- La 9              0.12        2.67320
         O 54 -- La 7              0.17        2.67326
         O 53 -- La 9              0.17        2.67335
         O 28 -- La 7              0.11        2.67344
         O 24 -- La 13             0.23        2.67352
         O 21 -- La 6              0.23        2.67364
         O 16 -- La 14             0.23        2.67402
         O 13 -- La 11             0.23        2.67435
         O 18 -- La 8              0.25        2.67461
         O 25 -- La 15             0.25        2.67474
         O 26 -- La 5              0.25        2.67484
         O 17 -- La 10             0.25        2.67503
         O 24 -- La 10             0.24        2.67708
         O 54 -- La 3              0.18        2.67711
         O 13 -- La 15             0.24        2.67714
         O 21 -- La 8              0.24        2.67717
         O 42 -- La 4              0.18        2.67720
         O 53 -- La 1              0.18        2.67736
         O 16 -- La 5              0.24        2.67756
         O 41 -- La 2              0.18        2.67763
         O 11 -- La 14             0.18        2.67808
         O 10 -- La 7              0.23        2.67820
         O 29 -- La 6              0.18        2.67836
         O 9  -- La 11             0.18        2.67843
         O 31 -- La 13             0.18        2.67848
         O 12 -- La 9              0.23        2.67880
         O 30 -- La 16             0.23        2.67891
         O 14 -- La 6              0.18        2.67907
         O 23 -- La 11             0.18        2.67913
         O 32 -- La 12             0.23        2.67917
         O 22 -- La 14             0.18        2.67922
         O 15 -- La 13             0.18        2.67925
         O 52 -- La 2              0.18        2.68166
         O 47 -- La 1              0.18        2.68217
         O 33 -- La 4              0.18        2.68227
         O 50 -- La 4              0.18        2.68232
         O 43 -- La 3              0.18        2.68234
         O 39 -- La 3              0.18        2.68236
         O 36 -- La 2              0.18        2.68250
         O 55 -- La 1              0.18        2.68276
         O 23 -- La 7              0.17        2.68536
         O 22 -- La 9              0.17        2.68576
         O 15 -- La 12             0.17        2.68606
         O 14 -- La 16             0.17        2.68631
         O 9  -- La 10             0.18        2.68849
         O 11 -- La 8              0.18        2.68871
         O 29 -- La 15             0.18        2.68874
         O 31 -- La 5              0.18        2.68885
         O 44 -- La 2              0.19        2.69138
         O 48 -- La 4              0.19        2.69182
         O 34 -- La 3              0.19        2.69189
         O 51 -- La 1              0.19        2.69232
         O 32 -- O 41             -0.06        2.79468
         O 30 -- O 42             -0.06        2.79512
         O 12 -- O 53             -0.06        2.79516
         O 10 -- O 54             -0.06        2.79525
         O 22 -- O 43             -0.06        2.79560
         O 15 -- O 33             -0.06        2.79576
         O 14 -- O 52             -0.06        2.79601
         O 23 -- O 47             -0.06        2.79638
         O 10 -- O 24             -0.05        2.79641
         O 12 -- O 21             -0.05        2.79655
         O 16 -- O 32             -0.05        2.79657
         O 13 -- O 30             -0.05        2.79662
         O 36 -- O 41             -0.06        2.79728
         O 53 -- O 55             -0.06        2.79803
         O 10 -- O 31             -0.06        2.79804
         O 12 -- O 29             -0.06        2.79814
         O 39 -- O 54             -0.06        2.79826
         O 42 -- O 50             -0.06        2.79828
         O 9  -- O 30             -0.06        2.79860
         O 11 -- O 32             -0.06        2.79895
         O 13 -- O 25             -0.05        2.80140
         O 18 -- O 21             -0.05        2.80141
         O 16 -- O 26             -0.05        2.80148
         O 17 -- O 24             -0.05        2.80155
         O 16 -- O 51             -0.06        2.80299
         O 21 -- O 48             -0.06        2.80301
         O 24 -- O 44             -0.06        2.80325
         O 13 -- O 34             -0.06        2.80338
         O 17 -- O 36             -0.06        2.80472
         O 25 -- O 39             -0.06        2.80511
         O 26 -- O 55             -0.06        2.80518
         O 18 -- O 50             -0.06        2.80528
         O 33 -- O 48             -0.06        2.80550
         O 34 -- O 43             -0.06        2.80564
         O 44 -- O 52             -0.06        2.80571
         O 47 -- O 51             -0.06        2.80589
         O 17 -- O 26             -0.05        2.80797
         O 18 -- O 26             -0.05        2.80804
         O 17 -- O 25             -0.05        2.80813
         O 18 -- O 25             -0.05        2.80816
         O 12 -- O 22             -0.06        2.80852
         O 14 -- O 30             -0.06        2.80869
         O 10 -- O 23             -0.06        2.80886
         O 15 -- O 32             -0.06        2.80888
         O 19 -- O 28             -0.03        2.81023
         O 20 -- O 28             -0.03        2.81031
         O 19 -- O 27             -0.03        2.81033
         O 20 -- O 27             -0.03        2.81048
         O 16 -- O 31             -0.05        2.81167
         O 13 -- O 29             -0.05        2.81204
         O 9  -- O 24             -0.05        2.81207
         O 11 -- O 21             -0.05        2.81238
         O 28 -- O 56             -0.03        2.81379
         O 20 -- O 49             -0.03        2.81413
         O 19 -- O 35             -0.03        2.81449
         O 27 -- O 40             -0.03        2.81468
         O 40 -- O 53             -0.03        2.81551
         O 35 -- O 42             -0.03        2.81588
         O 54 -- O 56             -0.03        2.81603
         O 41 -- O 49             -0.03        2.81604
         O 37 -- O 56             -0.03        2.81821
         O 35 -- O 45             -0.03        2.81834
         O 46 -- O 49             -0.03        2.81872
         O 38 -- O 40             -0.03        2.81919
         O 38 -- O 55             -0.03        2.81978
         O 37 -- O 39             -0.03        2.81990
         O 45 -- O 50             -0.03        2.82002
         O 36 -- O 46             -0.03        2.82046
         O 33 -- O 40             -0.03        2.82153
         O 15 -- O 27             -0.03        2.82169
         O 14 -- O 28             -0.03        2.82180
         O 47 -- O 49             -0.03        2.82183
         O 20 -- O 23             -0.03        2.82187
         O 35 -- O 43             -0.03        2.82189
         O 52 -- O 56             -0.03        2.82195
         O 19 -- O 22             -0.03        2.82211
         O 34 -- O 47             -0.03        2.82212
         O 43 -- O 51             -0.03        2.82214
         O 33 -- O 44             -0.03        2.82220
         O 48 -- O 52             -0.03        2.82224
         O 38 -- O 42             -0.03        2.82636
         O 37 -- O 41             -0.03        2.82673
         O 45 -- O 54             -0.03        2.82709
         O 46 -- O 53             -0.03        2.82720
         O 31 -- O 45             -0.03        2.82878
         O 11 -- O 37             -0.03        2.82885
         O 29 -- O 46             -0.03        2.82888
         O 9  -- O 38             -0.03        2.82923
         O 14 -- O 29             -0.03        2.83772
         O 11 -- O 22             -0.03        2.83773
         O 9  -- O 23             -0.03        2.83786
         O 15 -- O 31             -0.03        2.83793
         O 34 -- O 39             -0.03        2.84070
         O 48 -- O 50             -0.03        2.84081
         O 51 -- O 55             -0.03        2.84091
         O 36 -- O 44             -0.03        2.84094
============================================================
 

Writing analysis data to 025.castep_bin

Writing model to 025.check
 
 A BibTeX formatted list of references used in this run has been written to 
 025.bib
 
Initialisation time =     54.05 s
Calculation time    =  33767.60 s
Finalisation time   =     96.23 s
Total time          =  33917.87 s
Peak Memory Use     = 2839428 kB
  
Overall parallel efficiency rating: Good (77%)                                  
  
Data was distributed by:-
G-vector (4-way); efficiency rating: Good (78%)                                 
k-point (14-way); efficiency rating: Excellent (98%)                            
