 +-------------------------------------------------+
 |                                                 |
 |      CCC   AA    SSS  TTTTT  EEEEE  PPPP        |
 |     C     A  A  S       T    E      P   P       |
 |     C     AAAA   SS     T    EEE    PPPP        |
 |     C     A  A     S    T    E      P           |
 |      CCC  A  A  SSS     T    EEEEE  P           |
 |                                                 |
 +-------------------------------------------------+
 |                                                 |
 | Welcome to Academic Release CASTEP version 16.11|          
 | Ab Initio Total Energy Program                  |
 |                                                 |
 | Authors:                                        |
 | M. Segall, M. Probert, C. Pickard, P. Hasnip,   |
 | S. Clark, K. Refson, J. R. Yates, M. Payne      |
 |                                                 |
 | Contributors:                                   |
 | P. Lindan, P. Haynes, J. White, V. Milman,      |
 | N. Govind, M. Gibson, P. Tulip, V. Cocula,      |
 | B. Montanari, D. Quigley, M. Glover,            |
 | L. Bernasconi, A. Perlov, M. Plummer,           |
 | E. McNellis, J. Meyer, J. Gale, D. Jochym       |
 | J. Aarons, B. Walker, R. Gillen, D. Jones       |
 | T. Green, I. J. Bush, C. J. Armstrong,          |
 | E. J. Higgins, E. L. Brown, M. S. McFly         |
 |                                                 |
 | Copyright (c) 2000 - 2015                       |
 |                                                 |
 |     Distributed under the terms of an           |
 |     Agreement between the United Kingdom        |
 |     Car-Parrinello (UKCP) Consortium,           |
 |     Daresbury Laboratory and Accelrys, Inc.     |
 |                                                 |
 | Please cite                                     |
 |                                                 |
 |     "First principles methods using CASTEP"     |
 |                                                 |
 |         Zeitschrift fuer Kristallographie       |
 |           220(5-6) pp. 567-570 (2005)           |
 |                                                 |
 | S. J. Clark, M. D. Segall, C. J. Pickard,       |
 | P. J. Hasnip, M. J. Probert, K. Refson,         |
 | M. C. Payne                                     |
 |                                                 |
 |       in all publications arising from          |
 |              your use of CASTEP                 |
 |                                                 |
 +-------------------------------------------------+
 
 
 Compiled for linux_x86_64_ifort16 on Sat, 23 Jul 2016 23:44:54 +0100
 from code version 
 203e84763863+ Castep161_branch Fri, 04 Mar 2016 19:21:07 +0000
 Compiler: Intel Fortran 16.0.3.210; Optimisation: fast
 MATHLIBS: Intel MKL(11.3.3) (LAPACK version 3.6.0)
 FFT Lib : mkl
 Fundamental constants values: CODATA 2010
 
 Run started: Thu, 10 May 2018 17:33:59 +0100
 +-------------------------------------------------+
 |                                                 |
 |           N   N    M   M    RRRR                |
 |           NN  N    MM MM    R   R               |
 |           N N N    M M M    RRRR                |
 |           N  NN    M   M    R  R                |
 |           N   N    M   M    R   R               |
 |                                                 |
 +-------------------------------------------------+
 |                                                 |
 | Welcome to Materials Studio CASTEP-NMR          |
 |                                                 |
 | Authors:                                        |
 | J.R. Yates, C.J. Pickard, F. Mauri              |
 |                                                 |
 | Contributors:                                   |
 | T.F.G. Green, S.A. Joyce                        |
 |                                                 |
 | Copyright (c) 2004 - 2015                       |
 |                                                 |
 | Please cite the appropriate publications in all |
 | work arising from your use of CASTEP NMR.       |
 |                                                 |
 | For NMR Shielding Tensors cite:                 |
 |    "All-electron magnetic response with         |
 |    pseudopotentials: NMR chemical shifts",      |
 |    C. J. Pickard, F. Mauri;                     |
 |    Physical Review B63 245101 (2001), and       |
 |                                                 |
 |    "Calculation of NMR Chemical Shifts          |
 |    for extended systems using                   |
 |    Ultrasoft Pseudopotentials",                 |
 |    J. R. Yates, C. J. Pickard and F. Mauri      |
 |    Physical Review B76 024401 (2007)            |
 |                                                 |
 | For Electric Field Gradients cite:              |
 |   "Accurate First Principles Prediction of 17O  |
 |    NMR Parameters in SiO2: Assignment of the    |
 |    Zeolite Ferrierite Spectrum"                 |
 |    M. Profeta, F. Mauri and C. J. Pickard       |
 |    J. Amer. Chem. Soc. 125 541 (2003)           |
 |                                                 |
 | For Spin-Spin (J) Couplings cite:               |
 |   "A first principles theory of NMR J-coupling  |
 |   in solid-state systems"                       |
 |   S.A. Joyce, J.R. Yates, C.J. Pickard, F. Mauri|
 |   J. Chem. Phys. 127 204107 (2007)              |
 |                                                 |
 |   "Relativistic NMR J-coupling with ultrasoft   |
 |   pseudopotentials and the zeroth-order regular |
 |   approximation"                                |
 |   T.F.G. Green and J.R. Yates                   |
 |   J. Chem. Phys. 140 234106 (2014)              |
 |                                                 |
 +-------------------------------------------------+
 
 
 Atomic calculation performed for O: 1s2 2s2 2p4
 
 Converged in 44 iterations to an ae energy of -2040.855 eV
 
 
 Atomic calculation performed for O: 1s2 2s2 2p4
 
 Exceeded max iterations: converged to 0.000000062 eV
 
   ============================================================                
   | Pseudopotential Report - Date of generation 10-05-2018   |                
   ------------------------------------------------------------                
   | Element: O Ionic charge:  6.00 Level of theory: PBE      |                
   | Atomic Solver: ZORA (scalar)                             |                
   |                                                          |                
   |               Reference Electronic Structure             |                
   |         Orbital         Occupation         Energy        |                
   |            2s              2.000           -0.881        |                
   |            2p              4.000           -0.332        |                
   |                                                          |                
   |                 Pseudopotential Definition               |                
   |        Beta     l      e      Rc     scheme   norm       |                
   |          1      0   -0.881   1.100     qc      0         |                
   |          2      0    0.250   1.100     qc      0         |                
   |          3      1   -0.332   1.100     qc      0         |                
   |          4      1    0.250   1.100     qc      0         |                
   |         loc     2    0.000   1.100     pn      0         |                
   |                                                          |                
   | Augmentation charge Rinner = 0.769                       |                
   | Partial core correction Rc = 0.769                       |                
   ------------------------------------------------------------                
   | "2|1.1|15|18|20|20:21(qc=7)"                             |                
   ------------------------------------------------------------                
   |      Author: Chris J. Pickard, Cambridge University      |                
   ============================================================                
 
 Atomic calculation performed for Zr: 1s2 2s2 2p6 3s2 3p6 3d10 4s2 4p6 4d2 5s2
 
 Converged in 53 iterations to an ae energy of -97719.888 eV
 
 
 Atomic calculation performed for Zr: 1s2 2s2 2p6 3s2 3p6 3d10 4s2 4p6 4d2 5s2
 
 Exceeded max iterations: converged to 0.000000970 eV
 
 Warning: ion_atom_descreen_psp: negative charge density encountered
   ============================================================                
   | Pseudopotential Report - Date of generation 10-05-2018   |                
   ------------------------------------------------------------                
   | Element: Zr Ionic charge: 12.00 Level of theory: PBE     |                
   | Atomic Solver: ZORA (scalar)                             |                
   |                                                          |                
   |               Reference Electronic Structure             |                
   |         Orbital         Occupation         Energy        |                
   |            4s              2.000           -2.003        |                
   |            4p              6.000           -1.193        |                
   |            5s              2.000           -0.163        |                
   |            4d              2.000           -0.132        |                
   |                                                          |                
   |                 Pseudopotential Definition               |                
   |        Beta     l      e      Rc     scheme   norm       |                
   |          1      0   -2.003   2.105     qc      0         |                
   |          2      0   -0.163   2.105     qc      0         |                
   |          3      0    0.250   2.105     qc      0         |                
   |          4      1   -1.193   2.105     qc      0         |                
   |          5      1    0.250   2.105     qc      0         |                
   |          6      2   -0.132   2.105     qc      0         |                
   |          7      2    0.250   2.105     qc      0         |                
   |         loc     3    0.000   2.105     pn      0         |                
   |                                                          |                
   | Augmentation charge Rinner = 1.471                       |                
   | Partial core correction Rc = 1.471                       |                
   ------------------------------------------------------------                
   | "3|2.1|7|8|9|40U:50:41:42"                               |                
   ------------------------------------------------------------                
   |      Author: Chris J. Pickard, Cambridge University      |                
   ============================================================                
 
 Atomic calculation performed for Sn:
 1s2 2s2 2p6 3s2 3p6 3d10 4s2 4p6 4d10 5s2 5p2
 
 Converged in 58 iterations to an ae energy of -167539.320 eV
 
 
 Atomic calculation performed for Sn:
 1s2 2s2 2p6 3s2 3p6 3d10 4s2 4p6 4d10 5s2 5p2
 
 Exceeded max iterations: converged to 0.000001154 eV
 
   ============================================================                
   | Pseudopotential Report - Date of generation 10-05-2018   |                
   ------------------------------------------------------------                
   | Element: Sn Ionic charge: 14.00 Level of theory: PBE     |                
   | Atomic Solver: ZORA (scalar)                             |                
   |                                                          |                
   |               Reference Electronic Structure             |                
   |         Orbital         Occupation         Energy        |                
   |            4d             10.000           -0.950        |                
   |            5s              2.000           -0.388        |                
   |            5p              2.000           -0.136        |                
   |                                                          |                
   |                 Pseudopotential Definition               |                
   |        Beta     l      e      Rc     scheme   norm       |                
   |          1      0   -0.388   2.199     qc      0         |                
   |          2      0    0.250   2.199     qc      0         |                
   |          3      1   -0.136   2.199     qc      0         |                
   |          4      1    0.250   2.199     qc      0         |                
   |          5      2   -0.950   2.199     qc      0         |                
   |          6      2    0.250   2.199     qc      0         |                
   |         loc     3    0.000   2.199     pn      0         |                
   |                                                          |                
   | Augmentation charge Rinner = 1.537                       |                
   | Partial core correction Rc = 1.537                       |                
   ------------------------------------------------------------                
   | "3|2.2|7|8|9|50:51:42"                                   |                
   ------------------------------------------------------------                
   |      Author: Chris J. Pickard, Cambridge University      |                
   ============================================================                
 
 Atomic calculation performed for La:
 1s2 2s2 2p6 3s2 3p6 3d10 4s2 4p6 4d10 5s2 5p6 5d1 6s2
 
 Converged in 56 iterations to an ae energy of -230121.495 eV
 
 
 Atomic calculation performed for La:
 1s2 2s2 2p6 3s2 3p6 3d10 4s2 4p6 4d10 5s2 5p6 5d1 6s2
 
 Exceeded max iterations: converged to 0.000000907 eV
 
 Warning: ion_atom_descreen_psp: negative charge density encountered
   ============================================================                
   | Pseudopotential Report - Date of generation 10-05-2018   |                
   ------------------------------------------------------------                
   | Element: La Ionic charge: 11.00 Level of theory: PBE     |                
   | Atomic Solver: ZORA (scalar)                             |                
   |                                                          |                
   |               Reference Electronic Structure             |                
   |         Orbital         Occupation         Energy        |                
   |            5s              2.000           -1.430        |                
   |            5p              6.000           -0.823        |                
   |            6s              2.000           -0.135        |                
   |            5d              1.000           -0.114        |                
   |                                                          |                
   |                 Pseudopotential Definition               |                
   |        Beta     l      e      Rc     scheme   norm       |                
   |          1      0   -1.430   2.298     qc      0         |                
   |          2      0   -0.135   2.298     qc      0         |                
   |          3      0    0.250   2.298     qc      0         |                
   |          4      1   -0.823   2.298     qc      0         |                
   |          5      1    0.250   2.298     qc      0         |                
   |          6      2   -0.114   2.298     qc      0         |                
   |          7      2    0.250   2.298     qc      0         |                
   |         loc     2    0.000   2.298     pn      0         |                
   |                                                          |                
   | Augmentation charge Rinner = 1.606                       |                
   | Partial core correction Rc = 1.606                       |                
   ------------------------------------------------------------                
   | "2|2.3|5|6|7|50U:60:51:52(qc=4.5)"                       |                
   ------------------------------------------------------------                
   |      Author: Chris J. Pickard, Cambridge University      |                
   ============================================================                
 
 Pseudo atomic calculation performed for O 2s2 2p4
 
 Converged in 39 iterations to a total energy of -432.6554 eV
 
 
 Pseudo atomic calculation performed for Zr 4s2 4p6 4d2 5s2
 
 Converged in 38 iterations to a total energy of -1285.4931 eV
 
 
 Pseudo atomic calculation performed for Sn 4d10 5s2 5p2
 
 Converged in 48 iterations to a total energy of -2044.5414 eV
 
 
 Pseudo atomic calculation performed for La 5s2 5p6 5d1 6s2
 
 Converged in 34 iterations to a total energy of -968.0372 eV
 
 Calculation parallelised over 56 processes.
 Data is distributed by G-vector(4-way) and k-point(14-way)

 ************************************ Title ************************************
 nmr testing

 ***************************** General Parameters ******************************
  
 output verbosity                               : normal  (1)
 write checkpoint data to                       : 048.check
 type of calculation                            : Magnetic Resonance
 stress calculation                             : on
 density difference calculation                 : off
 electron localisation func (ELF) calculation   : off
 Hirshfeld analysis                             : off
 unlimited duration calculation
 timing information                             : on
 memory usage estimate                          : on
 write final potential to formatted file        : off
 write final density to formatted file          : off
 write structure in CIF formatted file          : on
 write structure in CELL formatted file         : on
 write BibTeX reference list                    : on
 write OTFG pseudopotential files               : on
 checkpoint writing                             : both castep_bin and check files
  
 output         length unit                     : A
 output           mass unit                     : amu
 output           time unit                     : ps
 output         charge unit                     : e
 output           spin unit                     : hbar/2
 output         energy unit                     : eV
 output          force unit                     : eV/A
 output       velocity unit                     : A/ps
 output       pressure unit                     : GPa
 output     inv_length unit                     : 1/A
 output      frequency unit                     : cm-1
 output force constant unit                     : eV/A**2
 output         volume unit                     : A**3
 output   IR intensity unit                     : (D/A)**2/amu
 output         dipole unit                     : D
 output         efield unit                     : eV/A/e
 output        entropy unit                     : J/mol/K
  
 wavefunctions paging                           : none
 random number generator seed                   : randomised (173401210)
 data distribution                              : optimal for this architecture
 optimization strategy                          : maximize speed(+++)

 *********************** Exchange-Correlation Parameters ***********************
  
 using functional                               : Perdew Burke Ernzerhof
 relativistic treatment                         : ZORA
 DFT+D: Semi-empirical dispersion correction    : off

 ************************* Pseudopotential Parameters **************************
  
 pseudopotential representation                 : reciprocal space
 <beta|phi> representation                      : reciprocal space
 spin-orbit coupling                            : off

 **************************** Basis Set Parameters *****************************
  
 plane wave basis set cut-off                   :   816.3416   eV
 size of standard grid                          :     1.7500
 size of   fine   gmax                          :    25.6161   1/A
 finite basis set correction                    : automatic
 number of sample energies                      :          3
           sample  spacing                      :     5.0000   eV

 **************************** Electronic Parameters ****************************
  
 number of  electrons                           :  720.0    
 net charge of system                           :  0.000    
 treating system as non-spin-polarized
 number of bands                                :        432

 ********************* Electronic Minimization Parameters **********************
  
 Method: Treating system as metallic with density mixing treatment of electrons,
         and number of  SD  steps               :          1
         and number of  CG  steps               :          4
  
 total energy / atom convergence tol.           : 0.1000E-08   eV
 eigen-energy convergence tolerance             : 0.2444E-09   eV
 max force / atom convergence tol.              : ignored
 convergence tolerance window                   :          3   cycles
 max. number of SCF cycles                      :         50
 number of fixed-spin iterations                :         10
 smearing scheme                                : Gaussian
 smearing width                                 : 0.2000       eV
 Fermi energy convergence tolerance             : 0.2721E-13   eV
 periodic dipole correction                     : NONE

 ************************** Density Mixing Parameters **************************
  
 density-mixing scheme                          : Broyden
 max. length of mixing history                  :         20
 charge density mixing amplitude                : 0.8000    
 cut-off energy for mixing                      :  816.3       eV

 *********************** Population Analysis Parameters ************************
  
 Population analysis with cutoff                :  3.000       A

 ************************ Magnetic Resonance Parameters ************************
  
 Magnetic Resonance Property                    : Chemical Shielding + EFG
 Position Operator Method                       : crystal
 max. number of MagRes CG steps                 :        250
 convergence tolerance window                   :          2   cycles
 energy convergence tolerance                   : 0.1000E-11   eV
 band convergence tolerance                     : 0.1000E-08   eV

 *******************************************************************************
  
 
                           -------------------------------
                                      Unit Cell
                           -------------------------------
        Real Lattice(A)                      Reciprocal Lattice(1/A)
  10.9014773   0.0074755  -0.0002839        0.5763612  -0.0003952   0.0000148
   0.0074760  10.9021193  -0.0056518       -0.0003952   0.5763274   0.0002988
  -0.0002833  -0.0056508  10.8998038        0.0000148   0.0002988   0.5764496
 
                       Lattice parameters(A)       Cell Angles
                    a =   10.901480          alpha =   90.059408
                    b =   10.902123          beta  =   90.003002
                    c =   10.899805          gamma =   89.921420
 
                       Current cell volume = 1295.432071       A**3
 
                           -------------------------------
                                     Cell Contents
                           -------------------------------
                         Total number of ions in cell =   88
                      Total number of species in cell =    4
                        Max number of any one species =   56
 
            xxxxxxxxxxxxxxxxxxxxxxxxxxxxxxxxxxxxxxxxxxxxxxxxxxxxxxxxxxxx
            x  Element    Atom        Fractional coordinates of atoms  x
            x            Number           u          v          w      x
            x----------------------------------------------------------x
            x  O            1         0.125316   0.124796   0.124944   x 
            x  O            2         0.625054   0.125240   0.624865   x 
            x  O            3         0.125480   0.624939   0.625101   x 
            x  O            4         0.624778   0.625084   0.125253   x 
            x  O            5         0.875009   0.374542   0.374870   x 
            x  O            6         0.875281   0.875386   0.875161   x 
            x  O            7         0.375225   0.374890   0.875151   x 
            x  O            8         0.374913   0.875111   0.375202   x 
            x  O            9         0.421287   0.124540   0.123707   x 
            x  O           10         0.330338   0.124866   0.624776   x 
            x  O           11         0.830971   0.624520   0.624869   x 
            x  O           12         0.919384   0.624828   0.124882   x 
            x  O           13         0.124711   0.419414   0.124235   x 
            x  O           14         0.624380   0.329897   0.124498   x 
            x  O           15         0.625508   0.830493   0.625189   x 
            x  O           16         0.125621   0.920085   0.624195   x 
            x  O           17         0.124811   0.124865   0.419546   x 
            x  O           18         0.124429   0.624912   0.330320   x 
            x  O           19         0.625795   0.625399   0.830537   x 
            x  O           20         0.624937   0.123859   0.920462   x 
            x  O           21         0.875338   0.668817   0.375407   x 
            x  O           22         0.874498   0.580957   0.875375   x 
            x  O           23         0.375175   0.079241   0.875678   x 
            x  O           24         0.374296   0.169626   0.374440   x 
            x  O           25         0.170925   0.376297   0.374465   x 
            x  O           26         0.079336   0.873871   0.374368   x 
            x  O           27         0.580663   0.874576   0.874440   x 
            x  O           28         0.670305   0.375801   0.874407   x 
            x  O           29         0.875496   0.375806   0.079806   x 
            x  O           30         0.372860   0.374806   0.171279   x 
            x  O           31         0.376416   0.874679   0.670650   x 
            x  O           32         0.873791   0.874631   0.579143   x 
            x  O           33         0.670583   0.874008   0.375845   x 
            x  O           34         0.080401   0.375287   0.875663   x 
            x  O           35         0.376117   0.670688   0.874460   x 
            x  O           36         0.874423   0.080558   0.375567   x 
            x  O           37         0.874849   0.375792   0.669733   x 
            x  O           38         0.375328   0.875298   0.079618   x 
            x  O           39         0.123609   0.328806   0.625508   x 
            x  O           40         0.624787   0.921212   0.123890   x 
            x  O           41         0.921051   0.126014   0.625837   x 
            x  O           42         0.329566   0.624610   0.125150   x 
            x  O           43         0.124461   0.624185   0.920140   x 
            x  O           44         0.624369   0.124220   0.330507   x 
            x  O           45         0.420630   0.626007   0.625011   x 
            x  O           46         0.830351   0.124806   0.124888   x 
            x  O           47         0.125126   0.127008   0.829156   x 
            x  O           48         0.625579   0.625394   0.420309   x 
            x  O           49         0.875078   0.170507   0.874381   x 
            x  O           50         0.373744   0.579197   0.374463   x 
            x  O           51         0.169689   0.875568   0.875379   x 
            x  O           52         0.580118   0.374782   0.375340   x 
            x  O           53         0.875024   0.873338   0.171285   x 
            x  O           54         0.374712   0.375371   0.580173   x 
            x  O           55         0.124750   0.829838   0.125734   x 
            x  O           56         0.625978   0.420273   0.625497   x 
            x  Zr           1         0.500225   0.500143   0.500171   x 
            x  Zr           2         0.249535   0.750021   1.000032   x 
            x  Zr           3         0.749997   0.999798   0.250898   x 
            x  Zr           4         0.750306   0.250568   0.999739   x 
            x  Zr           5         0.250558   0.000121   0.749954   x 
            x  Zr           6         0.249361   0.250082   0.499802   x 
            x  Zr           7         0.499477   0.249362   0.249886   x 
            x  Zr           8         0.999645   0.999999   0.499666   x 
            x  Sn           1         0.998788   0.251530   0.751290   x 
            x  Sn           2         0.000290   0.749171   0.249728   x 
            x  Sn           3         0.499614   0.999146   0.999035   x 
            x  Sn           4         0.750085   0.500239   0.750015   x 
            x  Sn           5         0.749691   0.749206   0.500552   x 
            x  Sn           6         0.248390   0.501034   0.248664   x 
            x  Sn           7         0.999724   0.500004   0.999987   x 
            x  Sn           8         0.501098   0.749685   0.749296   x 
            x  La           1         0.000200   0.999997   0.000129   x 
            x  La           2         0.749640   0.249835   0.499406   x 
            x  La           3         0.250755   0.500138   0.749775   x 
            x  La           4         0.499635   0.749899   0.250070   x 
            x  La           5         0.250048   0.750465   0.500497   x 
            x  La           6         0.749360   0.499360   0.250171   x 
            x  La           7         0.499845   0.250256   0.749436   x 
            x  La           8         0.000091   0.499790   0.500024   x 
            x  La           9         0.750257   0.750291   0.000473   x 
            x  La          10         0.249782  -0.000004   0.250361   x 
            x  La          11         0.250216   0.249772   0.999963   x 
            x  La          12         0.750389   0.000547   0.750063   x 
            x  La          13         0.499859   0.000534   0.499816   x 
            x  La          14         0.000786   0.750613   0.750152   x 
            x  La          15         0.999463   0.249102   0.249979   x 
            x  La          16         0.500241   0.499756   0.000211   x 
            xxxxxxxxxxxxxxxxxxxxxxxxxxxxxxxxxxxxxxxxxxxxxxxxxxxxxxxxxxxx
 
 
                         No user defined ionic velocities
 
                           -------------------------------
                                   Details of Species
                           -------------------------------
 
                               Mass of species in AMU
                                    O   15.9994000
                                    Zr   91.2240000
                                    Sn  118.7100000
                                    La  138.9055000
 
                          Electric Quadrupole Moment (Barn)
                                    O   -0.0255800 Isotope 17
                                    Zr   -0.1760000 Isotope 91
                                    Sn    1.0000000 No Isotope Defined
                                    La    0.2000000 Isotope139
 
                          Files used for pseudopotentials:
                                    O 2|1.1|15|18|20|20:21(qc=7)
                                    Zr 3|2.1|7|8|9|40U:50:41:42
                                    Sn 3|2.2|7|8|9|50:51:42
                                    La 2|2.3|5|6|7|50U:60:51:52(qc=4.5)
 
                           -------------------------------
                              k-Points For BZ Sampling
                           -------------------------------
                       MP grid size for SCF calculation is  3  3  3
                            with an offset of   0.000  0.000  0.000
                       Number of kpoints used =            14
 
                           -------------------------------
                               Symmetry and Constraints
                           -------------------------------
 
                      Maximum deviation from symmetry =  0.00000         ANG
 
         There are no symmetry operations specified or generated for this cell
                      Number of ionic constraints     =           3
                      Point group of crystal =     1: C1, 1, 1
                      Space group of crystal =     1: P1, P 1
 
 
                         Centre of mass is constrained
             Set iprint > 1 for details of linear ionic constraints
 
                         Number of cell constraints= 0
                         Cell constraints are:  1 2 3 4 5 6
 
                         External pressure/stress (GPa)
                          0.00000   0.00000   0.00000
                                    0.00000   0.00000
                                              0.00000
  
+---------------- MEMORY AND SCRATCH DISK ESTIMATES PER PROCESS --------------+
|                                                     Memory          Disk    |
| Baseline code, static data and system overhead      322.0 MB         0.0 MB |
| BLAS internal memory storage                          0.0 MB         0.0 MB |
| Model and support data                             1319.1 MB         0.0 MB |
| Electronic energy minimisation requirements         381.7 MB         0.0 MB |
| Force calculation requirements                       24.1 MB         0.0 MB |
| Stress calculation requirements                      28.3 MB         0.0 MB |
|                                               ----------------------------- |
| Approx. total storage required per process         2022.8 MB         0.0 MB |
|                                                                             |
| Requirements will fluctuate during execution and may exceed these estimates |
+-----------------------------------------------------------------------------+
Calculating finite basis set correction with  3 cut-off energies.
Calculating total energy with cut-off of  806.342eV.
------------------------------------------------------------------------ <-- SCF
SCF loop      Energy           Fermi           Energy gain       Timer   <-- SCF
                               energy          per atom          (sec)   <-- SCF
------------------------------------------------------------------------ <-- SCF
Initial  -5.62708318E+004  0.00000000E+000                        75.01  <-- SCF
      1  -6.45257885E+004  7.53140278E+000   9.38063264E+001     217.38  <-- SCF
      2  -6.70871399E+004  6.86999818E+000   2.91062661E+001     312.19  <-- SCF
      3  -6.71704084E+004  6.48198151E+000   9.46232347E-001     416.81  <-- SCF
      4  -6.71642572E+004  7.62670972E+000  -6.98996254E-002     548.14  <-- SCF
      5  -6.70611998E+004  7.01470059E+000  -1.17110658E+000     676.55  <-- SCF
      6  -6.70625948E+004  6.90233588E+000   1.58525065E-002     838.24  <-- SCF
      7  -6.70622775E+004  6.98308688E+000  -3.60585796E-003     974.83  <-- SCF
      8  -6.70623592E+004  6.98645648E+000   9.27835617E-004    1154.49  <-- SCF
      9  -6.70623807E+004  6.98713343E+000   2.44784266E-004    1302.87  <-- SCF
     10  -6.70623811E+004  6.98501074E+000   3.94927570E-006    1443.05  <-- SCF
     11  -6.70623806E+004  6.98663043E+000  -4.98673901E-006    1585.83  <-- SCF
     12  -6.70623809E+004  6.98671195E+000   3.18072813E-006    1739.70  <-- SCF
     13  -6.70623809E+004  6.98637044E+000   2.89741405E-007    1876.60  <-- SCF
     14  -6.70623809E+004  6.98619391E+000  -3.07977194E-007    2013.72  <-- SCF
     15  -6.70623809E+004  6.98586324E+000  -7.83867243E-008    2159.26  <-- SCF
     16  -6.70623809E+004  6.98569501E+000  -3.46185252E-009    2283.52  <-- SCF
     17  -6.70623809E+004  6.98562854E+000  -1.81072647E-009    2402.51  <-- SCF
     18  -6.70623809E+004  6.98557047E+000  -3.89509382E-011    2501.71  <-- SCF
     19  -6.70623809E+004  6.98553736E+000   2.92202345E-010    2595.80  <-- SCF
------------------------------------------------------------------------ <-- SCF
 
Final energy, E             =  -67062.38089897     eV
Final free energy (E-TS)    =  -67062.38089897     eV
(energies not corrected for finite basis set)
 
NB est. 0K energy (E-0.5TS)      =  -67062.38089897     eV
 
Calculating total energy with cut-off of  811.342eV.
------------------------------------------------------------------------ <-- SCF
SCF loop      Energy           Fermi           Energy gain       Timer   <-- SCF
                               energy          per atom          (sec)   <-- SCF
------------------------------------------------------------------------ <-- SCF
Initial  -6.70623809E+004  0.00000000E+000                      2631.67  <-- SCF
      1  -6.70623834E+004  6.98554119E+000   2.80278379E-005    2744.03  <-- SCF
      2  -6.70623834E+004  6.98554119E+000   1.99957524E-010    2833.85  <-- SCF
      3  -6.70623834E+004  6.98553420E+000   1.63295832E-008    2923.81  <-- SCF
      4  -6.70623834E+004  6.98553945E+000   4.91316167E-010    3013.82  <-- SCF
      5  -6.70623834E+004  6.98553812E+000  -1.33867484E-010    3102.98  <-- SCF
------------------------------------------------------------------------ <-- SCF
 
Final energy, E             =  -67062.38336690     eV
Final free energy (E-TS)    =  -67062.38336690     eV
(energies not corrected for finite basis set)
 
NB est. 0K energy (E-0.5TS)      =  -67062.38336690     eV
 
Calculating total energy with cut-off of  816.342eV.
------------------------------------------------------------------------ <-- SCF
SCF loop      Energy           Fermi           Energy gain       Timer   <-- SCF
                               energy          per atom          (sec)   <-- SCF
------------------------------------------------------------------------ <-- SCF
Initial  -6.70623834E+004  0.00000000E+000                      3138.70  <-- SCF
      1  -6.70623863E+004  6.98553301E+000   3.36327388E-005    3250.84  <-- SCF
      2  -6.70623863E+004  6.98553301E+000   2.06707145E-010    3340.40  <-- SCF
      3  -6.70623863E+004  6.98553051E+000   2.09139821E-008    3430.14  <-- SCF
      4  -6.70623863E+004  6.98553490E+000   6.78336917E-010    3519.92  <-- SCF
      5  -6.70623863E+004  6.98553311E+000  -5.65280764E-011    3609.72  <-- SCF
------------------------------------------------------------------------ <-- SCF
 
Final energy, E             =  -67062.38632849     eV
Final free energy (E-TS)    =  -67062.38632849     eV
(energies not corrected for finite basis set)
 
NB est. 0K energy (E-0.5TS)      =  -67062.38632849     eV
 
 For future reference: finite basis dEtot/dlog(Ecut) =      -0.439433eV
 Total energy corrected for finite basis set =  -67062.386323 eV
 
  =====================================================================
  +       Calculation of Nuclear Magnetic Resonance Parameters        +
  + ================================================================= +
 
  Starting Calculation of Electric Field Gradient Tensors         |<-- EFG
  +---------------- MEMORY AND SCRATCH DISK ESTIMATES PER PROCESS --------------+
  |                                                     Memory          Disk    |
  | Model and support data                             1316.8 MB         0.0 MB |
  | NMR EFG calculation requirements                    367.4 MB         0.0 MB |
  |                                               ----------------------------- |
  | Approx. total storage required per process         1684.2 MB         0.0 MB |
  |                                                                             |
  | Requirements will fluctuate during execution and may exceed these estimates |
  +-----------------------------------------------------------------------------+
  Total Time for EFG Tensors                     394.16 sec       |<-- EFG
 
  Starting Calculation of Chemical Shielding Tensors              |<-- NMR
  +---------------- MEMORY AND SCRATCH DISK ESTIMATES PER PROCESS --------------+
  |                                                     Memory          Disk    |
  | Model and support data                             1316.8 MB         0.0 MB |
  | NMR chemical shift calculation requirements         564.2 MB         0.0 MB |
  |                                               ----------------------------- |
  | Approx. total storage required per process         1881.0 MB         0.0 MB |
  |                                                                             |
  | Requirements will fluctuate during execution and may exceed these estimates |
  +-----------------------------------------------------------------------------+
  Starting k-point:   1 of   1                                    |<-- NMR
  Total Time for step 1 of 6:                   3357.64 sec       |<-- NMR
  Total Time for step 2 of 6:                   3341.12 sec       |<-- NMR
  Total Time for step 3 of 6:                   3330.42 sec       |<-- NMR
  Total Time for step 4 of 6:                   3321.37 sec       |<-- NMR
  Total Time for step 5 of 6:                   3299.88 sec       |<-- NMR
  Total Time for step 6 of 6:                   3301.41 sec       |<-- NMR
  Total Time for Chemical Shielding Tensors    29373.50 sec       |<-- NMR
 
  ========================================================================
  |           Chemical Shielding and Electric Field Gradient Tensors     |
  |----------------------------------------------------------------------|
  |     Nucleus                Shielding tensor             EFG Tensor   |
  |  Species       Ion    Iso(ppm)   Aniso(ppm)  Asym    Cq(MHz)    Eta  |
  |    O           1     -317.01      -9.47      0.59   4.716E-02   0.51 |
  |    O           2     -317.79       9.89      0.77   3.071E-02   0.85 |
  |    O           3     -318.37     -10.67      0.84  -6.399E-02   0.38 |
  |    O           4     -317.17      13.66      0.81  -3.856E-02   0.61 |
  |    O           5     -319.30       6.49      0.45  -5.451E-02   0.49 |
  |    O           6     -318.43     -14.52      0.65  -5.830E-02   0.43 |
  |    O           7     -317.32     -11.60      0.21   4.931E-02   0.35 |
  |    O           8     -317.63      14.62      0.37  -3.581E-02   0.82 |
  |    O           9      -88.67      99.80      0.24  -3.131E+00   0.11 |
  |    O          10     -162.81     149.14      0.80   1.046E+00   0.82 |
  |    O          11       -9.95      57.25      0.92   3.825E+00   0.90 |
  |    O          12       -9.87      59.18      0.67   3.885E+00   0.89 |
  |    O          13      -11.62      59.57      0.50   3.902E+00   0.83 |
  |    O          14     -160.45     149.57      0.81   1.085E+00   0.70 |
  |    O          15      -12.70      58.04      0.46   3.909E+00   0.83 |
  |    O          16     -159.80     147.04      0.81   1.085E+00   0.69 |
  |    O          17     -161.73     153.84      0.81   1.044E+00   0.80 |
  |    O          18       -9.20      58.77      0.39   3.945E+00   0.84 |
  |    O          19      -10.78      58.75      0.64   3.887E+00   0.87 |
  |    O          20      -84.96      80.80      0.26  -3.134E+00   0.07 |
  |    O          21       -4.59      66.96      0.96   3.785E+00   0.92 |
  |    O          22      -11.16      56.26      0.93   3.828E+00   0.91 |
  |    O          23      -87.76      97.70      0.22  -3.218E+00   0.11 |
  |    O          24     -163.05     156.09      0.80   1.040E+00   0.90 |
  |    O          25      -84.13      91.17      0.10  -3.140E+00   0.08 |
  |    O          26      -89.76      78.43      0.26  -3.236E+00   0.11 |
  |    O          27       -0.75      68.51      0.66   3.861E+00   0.88 |
  |    O          28      -90.59      87.85      0.23  -3.171E+00   0.09 |
  |    O          29      -90.48      81.78      0.09  -3.260E+00   0.08 |
  |    O          30      -83.93      85.99      0.12  -3.149E+00   0.10 |
  |    O          31      -89.56      81.32      0.16  -3.215E+00   0.11 |
  |    O          32      -86.14      87.75      0.14  -3.207E+00   0.08 |
  |    O          33      -89.73      89.09      0.14  -3.173E+00   0.10 |
  |    O          34      -11.15      58.35      0.49   3.925E+00   0.83 |
  |    O          35      -89.06      83.98      0.25  -3.141E+00   0.07 |
  |    O          36     -163.98     157.60      0.84   1.051E+00   0.86 |
  |    O          37      -11.70      58.89      0.45   3.924E+00   0.85 |
  |    O          38      -89.30      89.11      0.27  -3.177E+00   0.08 |
  |    O          39      -82.87      91.48      0.13  -3.149E+00   0.07 |
  |    O          40      -81.50      82.95      0.29  -3.135E+00   0.08 |
  |    O          41      -87.10      87.18      0.24  -3.157E+00   0.10 |
  |    O          42      -88.77      90.31      0.29  -3.175E+00   0.08 |
  |    O          43      -89.86      87.38      0.13  -3.220E+00   0.06 |
  |    O          44     -163.00     158.99      0.78   1.033E+00   0.88 |
  |    O          45      -90.38      93.39      0.24  -3.195E+00   0.10 |
  |    O          46     -162.42     144.62      0.83   1.024E+00   0.75 |
  |    O          47      -85.10      82.80      0.12  -3.159E+00   0.09 |
  |    O          48      -88.65      85.08      0.23  -3.233E+00   0.10 |
  |    O          49      -88.44      93.98      0.23  -3.223E+00   0.10 |
  |    O          50      -88.75      83.88      0.21  -3.112E+00   0.07 |
  |    O          51     -161.99     148.52      0.86   1.064E+00   0.70 |
  |    O          52     -163.48     152.36      0.77   1.053E+00   0.78 |
  |    O          53      -84.80      84.65      0.16  -3.202E+00   0.10 |
  |    O          54     -161.44     144.09      0.84   1.049E+00   0.73 |
  |    O          55      -92.77      94.36      0.25  -3.173E+00   0.10 |
  |    O          56      -92.37      77.50      0.18  -3.250E+00   0.11 |
  |    Zr          1     1614.86    -120.26      0.16  -3.661E+01   0.13 |
  |    Zr          2     1608.00    -116.87      0.09  -3.565E+01   0.09 |
  |    Zr          3     1628.38    -126.45      0.19  -3.753E+01   0.07 |
  |    Zr          4     1613.79    -118.92      0.16  -3.662E+01   0.12 |
  |    Zr          5     1628.06    -124.04      0.13  -3.764E+01   0.10 |
  |    Zr          6     1635.43    -123.81      0.08  -3.844E+01   0.07 |
  |    Zr          7     1633.44    -123.74      0.11  -3.873E+01   0.05 |
  |    Zr          8     1629.61    -125.75      0.02  -3.748E+01   0.15 |
  |    Sn          1     3247.41     -48.62      0.46   1.258E+02   0.10 |
  |    Sn          2     3254.58     -64.94      0.52   1.267E+02   0.14 |
  |    Sn          3     3250.88     -44.94      0.20   1.285E+02   0.10 |
  |    Sn          4     3252.59     -63.68      0.51   1.234E+02   0.04 |
  |    Sn          5     3256.01     -59.90      0.24   1.251E+02   0.17 |
  |    Sn          6     3247.58     -47.72      0.58   1.257E+02   0.09 |
  |    Sn          7     3254.36     -61.40      0.69   1.231E+02   0.13 |
  |    Sn          8     3254.32     -57.57      0.34   1.254E+02   0.06 |
  |    La          1     4703.87     777.30      0.10  -8.516E+01   0.12 |
  |    La          2     4699.25     757.21      0.03  -8.235E+01   0.07 |
  |    La          3     4658.06     653.90      0.08  -8.216E+01   0.14 |
  |    La          4     4660.08     652.28      0.01  -8.348E+01   0.04 |
  |    La          5     4652.80     660.30      0.09  -8.009E+01   0.13 |
  |    La          6     4655.47     615.50      0.01  -8.037E+01   0.01 |
  |    La          7     4705.27     762.59      0.05  -8.519E+01   0.07 |
  |    La          8     4556.95     388.33      0.07  -7.321E+01   0.11 |
  |    La          9     4554.99     382.31      0.06  -7.251E+01   0.11 |
  |    La         10     4701.39     768.83      0.04  -8.350E+01   0.03 |
  |    La         11     4599.92     537.26      0.07  -7.622E+01   0.09 |
  |    La         12     4604.25     522.05      0.08  -7.751E+01   0.10 |
  |    La         13     4701.55     755.42      0.03  -8.180E+01   0.08 |
  |    La         14     4662.80     614.27      0.01  -8.202E+01   0.02 |
  |    La         15     4704.56     751.39      0.04  -8.431E+01   0.10 |
  |    La         16     4659.27     656.92      0.07  -8.169E+01   0.11 |
  ========================================================================
 
 *********************** Forces ***********************
 *                                                    *
 *            Cartesian components (eV/A)             *
 * -------------------------------------------------- *
 *                   x            y            z      *
 *                                                    *
 * O         1     -0.00192     -0.00410      0.00289 *
 * O         2     -0.00341      0.00087     -0.01810 *
 * O         3      0.00399      0.00728     -0.00451 *
 * O         4      0.00410     -0.00912     -0.00582 *
 * O         5     -0.01244     -0.01175      0.00001 *
 * O         6      0.00265      0.00191      0.00404 *
 * O         7     -0.00242     -0.00267     -0.00248 *
 * O         8     -0.00641      0.01206      0.00594 *
 * O         9      0.00100     -0.01343     -0.00753 *
 * O        10     -0.01368     -0.00922      0.00196 *
 * O        11     -0.00993     -0.00664      0.00865 *
 * O        12      0.01141     -0.00370      0.00430 *
 * O        13     -0.01345      0.00040     -0.00782 *
 * O        14      0.00636     -0.01068      0.00446 *
 * O        15     -0.01301      0.00219      0.00682 *
 * O        16      0.00952      0.01253     -0.00346 *
 * O        17     -0.00778     -0.00922      0.00318 *
 * O        18     -0.00930      0.01433     -0.00695 *
 * O        19      0.00140      0.00195     -0.00786 *
 * O        20     -0.01473      0.00183     -0.00301 *
 * O        21      0.00636      0.00959     -0.00931 *
 * O        22      0.00000     -0.01346     -0.00273 *
 * O        23      0.01571     -0.00823      0.01222 *
 * O        24      0.00878      0.01455     -0.00635 *
 * O        25     -0.01284      0.01788     -0.02714 *
 * O        26     -0.00571     -0.01252     -0.02199 *
 * O        27     -0.00946     -0.00739     -0.01488 *
 * O        28      0.00834      0.01690     -0.02857 *
 * O        29      0.03163      0.02650     -0.00243 *
 * O        30     -0.00708      0.00465      0.00260 *
 * O        31      0.02516     -0.01657      0.00106 *
 * O        32     -0.01442     -0.01287     -0.00551 *
 * O        33     -0.00084     -0.00677      0.01435 *
 * O        34     -0.00846      0.00191      0.00548 *
 * O        35      0.01229      0.00174     -0.01877 *
 * O        36      0.00046     -0.01378      0.00642 *
 * O        37     -0.00873     -0.00300     -0.00011 *
 * O        38     -0.00037      0.01356     -0.00768 *
 * O        39     -0.03202      0.00267      0.02913 *
 * O        40     -0.01526      0.00628      0.00098 *
 * O        41     -0.00002      0.01659      0.01372 *
 * O        42     -0.01582     -0.01042      0.00864 *
 * O        43     -0.02069     -0.02876      0.00255 *
 * O        44      0.00265      0.00177     -0.00779 *
 * O        45      0.01336      0.01930      0.01233 *
 * O        46     -0.00605      0.00377      0.00705 *
 * O        47     -0.01431      0.01174     -0.00415 *
 * O        48      0.01256      0.01662      0.00820 *
 * O        49      0.01929      0.01588     -0.01289 *
 * O        50     -0.01200      0.00124     -0.01267 *
 * O        51      0.01125      0.00086      0.00585 *
 * O        52     -0.00942     -0.01491      0.00099 *
 * O        53      0.02287     -0.00936      0.00516 *
 * O        54      0.00612      0.00070     -0.00908 *
 * O        55     -0.01735     -0.01090      0.02439 *
 * O        56      0.02071      0.00487      0.01582 *
 * Zr        1     -0.02266      0.01465     -0.01896 *
 * Zr        2      0.01133      0.00302     -0.01338 *
 * Zr        3      0.00575     -0.04071     -0.01474 *
 * Zr        4     -0.01334     -0.01367     -0.00883 *
 * Zr        5     -0.00336      0.00865      0.00907 *
 * Zr        6     -0.00096      0.01189      0.00727 *
 * Zr        7     -0.02502      0.00837     -0.02018 *
 * Zr        8      0.00133     -0.01735      0.03935 *
 * Sn        1      0.02348     -0.01633     -0.01432 *
 * Sn        2     -0.01745     -0.00512      0.00689 *
 * Sn        3      0.02543      0.00338      0.01303 *
 * Sn        4      0.00393      0.00830      0.00329 *
 * Sn        5      0.00685     -0.00128     -0.00551 *
 * Sn        6      0.02770     -0.01389      0.01744 *
 * Sn        7      0.01289      0.01132     -0.00641 *
 * Sn        8     -0.00403     -0.01031      0.01987 *
 * La        1     -0.00658      0.00319     -0.00987 *
 * La        2      0.01541      0.01777      0.02687 *
 * La        3     -0.00824      0.00609      0.00298 *
 * La        4      0.01043     -0.00464     -0.00663 *
 * La        5      0.00154     -0.02162     -0.00733 *
 * La        6      0.00627      0.02290      0.00822 *
 * La        7      0.01098     -0.00749      0.01936 *
 * La        8      0.00679      0.00030     -0.00334 *
 * La        9     -0.01312      0.01284      0.00504 *
 * La       10      0.01183     -0.00328     -0.01524 *
 * La       11      0.00429      0.00176      0.00166 *
 * La       12     -0.00271     -0.00630      0.00367 *
 * La       13      0.00349     -0.01901      0.01332 *
 * La       14     -0.01668     -0.01006     -0.01017 *
 * La       15      0.01618      0.02934     -0.00545 *
 * La       16     -0.01039      0.01184      0.00342 *
 *                                                    *
 ******************************************************
 
 ***************** Stress Tensor *****************
 *                                               *
 *          Cartesian components (GPa)           *
 * --------------------------------------------- *
 *             x             y             z     *
 *                                               *
 *  x      0.033062      0.031437      0.001354  *
 *  y      0.031437      0.038483     -0.030392  *
 *  z      0.001354     -0.030392      0.023984  *
 *                                               *
 *  Pressure:   -0.0318                          *
 *                                               *
 *************************************************
 
 Pseudo atomic calculation performed for O 2s2 2p4
 
 Converged in 39 iterations to a total energy of -432.6554 eV
 
 
 Pseudo atomic calculation performed for Zr 4s2 4p6 4d2 5s2
 
 Converged in 38 iterations to a total energy of -1285.4931 eV
 
 
 Pseudo atomic calculation performed for Sn 4d10 5s2 5p2
 
 Converged in 48 iterations to a total energy of -2044.5414 eV
 
 
 Pseudo atomic calculation performed for La 5s2 5p6 5d1 6s2
 
 Converged in 34 iterations to a total energy of -968.0372 eV
 
Charge spilling parameter for spin component 1 = 0.24%
 
     Atomic Populations (Mulliken)
     -----------------------------
Species   Ion     s      p      d      f     Total  Charge (e)
==============================================================
  O        1     1.87   5.00   0.00   0.00   6.87    -0.87
  O        2     1.87   5.00   0.00   0.00   6.87    -0.87
  O        3     1.87   5.00   0.00   0.00   6.87    -0.87
  O        4     1.87   5.00   0.00   0.00   6.87    -0.87
  O        5     1.87   5.00   0.00   0.00   6.87    -0.87
  O        6     1.87   5.00   0.00   0.00   6.87    -0.87
  O        7     1.87   5.00   0.00   0.00   6.87    -0.87
  O        8     1.87   5.00   0.00   0.00   6.87    -0.87
  O        9     1.87   4.99   0.00   0.00   6.85    -0.85
  O       10     1.86   4.95   0.00   0.00   6.80    -0.80
  O       11     1.88   5.02   0.00   0.00   6.91    -0.91
  O       12     1.88   5.02   0.00   0.00   6.91    -0.91
  O       13     1.88   5.02   0.00   0.00   6.91    -0.91
  O       14     1.86   4.95   0.00   0.00   6.80    -0.80
  O       15     1.88   5.02   0.00   0.00   6.91    -0.91
  O       16     1.86   4.95   0.00   0.00   6.80    -0.80
  O       17     1.86   4.95   0.00   0.00   6.80    -0.80
  O       18     1.88   5.03   0.00   0.00   6.91    -0.91
  O       19     1.88   5.02   0.00   0.00   6.91    -0.91
  O       20     1.87   4.99   0.00   0.00   6.85    -0.85
  O       21     1.88   5.02   0.00   0.00   6.91    -0.91
  O       22     1.88   5.02   0.00   0.00   6.91    -0.91
  O       23     1.87   4.99   0.00   0.00   6.86    -0.86
  O       24     1.86   4.95   0.00   0.00   6.80    -0.80
  O       25     1.87   4.99   0.00   0.00   6.86    -0.86
  O       26     1.87   4.99   0.00   0.00   6.86    -0.86
  O       27     1.88   5.02   0.00   0.00   6.91    -0.91
  O       28     1.87   4.99   0.00   0.00   6.86    -0.86
  O       29     1.87   4.99   0.00   0.00   6.86    -0.86
  O       30     1.87   4.99   0.00   0.00   6.86    -0.86
  O       31     1.87   4.99   0.00   0.00   6.86    -0.86
  O       32     1.87   4.99   0.00   0.00   6.86    -0.86
  O       33     1.87   4.99   0.00   0.00   6.86    -0.86
  O       34     1.88   5.02   0.00   0.00   6.91    -0.91
  O       35     1.87   4.99   0.00   0.00   6.86    -0.86
  O       36     1.86   4.95   0.00   0.00   6.80    -0.80
  O       37     1.88   5.02   0.00   0.00   6.91    -0.91
  O       38     1.87   4.99   0.00   0.00   6.86    -0.86
  O       39     1.87   4.99   0.00   0.00   6.86    -0.86
  O       40     1.87   4.99   0.00   0.00   6.86    -0.86
  O       41     1.87   4.99   0.00   0.00   6.85    -0.85
  O       42     1.87   4.99   0.00   0.00   6.86    -0.86
  O       43     1.87   4.99   0.00   0.00   6.86    -0.86
  O       44     1.86   4.95   0.00   0.00   6.80    -0.80
  O       45     1.87   4.99   0.00   0.00   6.86    -0.86
  O       46     1.86   4.95   0.00   0.00   6.80    -0.80
  O       47     1.87   4.99   0.00   0.00   6.85    -0.85
  O       48     1.87   4.99   0.00   0.00   6.86    -0.86
  O       49     1.87   4.99   0.00   0.00   6.86    -0.86
  O       50     1.87   4.99   0.00   0.00   6.85    -0.85
  O       51     1.86   4.95   0.00   0.00   6.80    -0.80
  O       52     1.86   4.95   0.00   0.00   6.80    -0.80
  O       53     1.87   4.99   0.00   0.00   6.86    -0.86
  O       54     1.86   4.95   0.00   0.00   6.80    -0.80
  O       55     1.87   4.99   0.00   0.00   6.86    -0.86
  O       56     1.87   4.99   0.00   0.00   6.86    -0.86
  Zr       1     2.37   6.49   1.92   0.00  10.78     1.22
  Zr       2     2.37   6.50   1.92   0.00  10.79     1.21
  Zr       3     2.37   6.48   1.92   0.00  10.78     1.22
  Zr       4     2.37   6.49   1.92   0.00  10.78     1.22
  Zr       5     2.37   6.48   1.92   0.00  10.77     1.23
  Zr       6     2.36   6.47   1.93   0.00  10.76     1.24
  Zr       7     2.37   6.47   1.93   0.00  10.77     1.23
  Zr       8     2.37   6.48   1.92   0.00  10.77     1.23
  Sn       1     1.05   1.31  10.00   0.00  12.36     1.64
  Sn       2     1.05   1.31  10.00   0.00  12.36     1.64
  Sn       3     1.05   1.31  10.00   0.00  12.36     1.64
  Sn       4     1.05   1.31  10.00   0.00  12.36     1.64
  Sn       5     1.05   1.31  10.00   0.00  12.36     1.64
  Sn       6     1.05   1.31  10.00   0.00  12.36     1.64
  Sn       7     1.05   1.31  10.00   0.00  12.36     1.64
  Sn       8     1.05   1.31  10.00   0.00  12.36     1.64
  La       1     2.05   6.16   1.20   0.00   9.41     1.59
  La       2     2.06   6.16   1.19   0.00   9.41     1.59
  La       3     2.07   6.17   1.19   0.00   9.44     1.56
  La       4     2.04   6.18   1.19   0.00   9.41     1.59
  La       5     2.08   6.17   1.19   0.00   9.44     1.56
  La       6     2.07   6.18   1.19   0.00   9.44     1.56
  La       7     2.02   6.16   1.19   0.00   9.38     1.62
  La       8     2.10   6.20   1.19   0.00   9.50     1.50
  La       9     2.12   6.20   1.19   0.00   9.51     1.49
  La      10     2.03   6.16   1.19   0.00   9.38     1.62
  La      11     2.09   6.18   1.19   0.00   9.46     1.54
  La      12     2.08   6.19   1.19   0.00   9.46     1.54
  La      13     2.04   6.16   1.19   0.00   9.39     1.61
  La      14     2.06   6.18   1.19   0.00   9.44     1.56
  La      15     2.03   6.16   1.19   0.00   9.39     1.61
  La      16     2.07   6.17   1.19   0.00   9.44     1.56
==============================================================
 
            Bond              Population      Length (A)
============================================================
         O 49 -- Sn 1              0.35        2.09881
         O 23 -- Sn 3              0.35        2.09992
         O 42 -- Sn 6              0.35        2.10185
         O 48 -- Sn 5              0.35        2.10240
         O 45 -- Sn 8              0.34        2.10287
         O 53 -- Sn 2              0.34        2.10370
         O 29 -- Sn 7              0.35        2.10521
         O 56 -- Sn 4              0.34        2.10550
         O 18 -- Sn 6              0.34        2.10593
         O 40 -- Sn 3              0.35        2.10594
         O 18 -- Sn 2              0.34        2.10607
         O 26 -- Sn 2              0.34        2.10611
         O 32 -- Sn 5              0.35        2.10627
         O 31 -- Sn 8              0.34        2.10630
         O 9  -- Sn 3              0.34        2.10658
         O 38 -- Sn 3              0.34        2.10663
         O 30 -- Sn 6              0.34        2.10691
         O 28 -- Sn 4              0.34        2.10770
         O 33 -- Sn 5              0.34        2.10788
         O 39 -- Sn 1              0.35        2.10874
         O 55 -- Sn 2              0.34        2.10874
         O 43 -- Sn 7              0.35        2.10880
         O 37 -- Sn 1              0.34        2.10912
         O 37 -- Sn 4              0.33        2.10926
         O 34 -- Sn 1              0.34        2.10928
         O 13 -- Sn 6              0.34        2.10942
         O 25 -- Sn 6              0.35        2.10946
         O 15 -- Sn 8              0.34        2.10984
         O 34 -- Sn 7              0.33        2.10988
         O 20 -- Sn 3              0.34        2.11098
         O 47 -- Sn 1              0.34        2.11123
         O 15 -- Sn 5              0.33        2.11141
         O 41 -- Sn 1              0.34        2.11179
         O 19 -- Sn 4              0.33        2.11202
         O 44 -- Zr 3              0.43        2.11214
         O 13 -- Sn 7              0.33        2.11223
         O 36 -- Zr 3              0.42        2.11240
         O 27 -- Sn 3              0.33        2.11243
         O 36 -- Zr 8              0.41        2.11271
         O 35 -- Sn 8              0.34        2.11308
         O 12 -- Sn 7              0.33        2.11311
         O 19 -- Sn 8              0.34        2.11313
         O 27 -- Sn 8              0.34        2.11331
         O 12 -- Sn 2              0.34        2.11345
         O 24 -- Zr 7              0.42        2.11352
         O 23 -- Zr 5              0.44        2.11378
         O 9  -- Zr 7              0.45        2.11403
         O 11 -- Sn 5              0.34        2.11410
         O 52 -- Zr 1              0.43        2.11441
         O 49 -- Zr 4              0.44        2.11505
         O 50 -- Sn 6              0.34        2.11526
         O 10 -- Zr 5              0.42        2.11537
         O 17 -- Zr 6              0.42        2.11539
         O 14 -- Zr 4              0.43        2.11570
         O 51 -- Zr 2              0.42        2.11603
         O 55 -- Zr 2              0.44        2.11648
         O 45 -- Zr 1              0.44        2.11669
         O 11 -- Sn 4              0.34        2.11690
         O 22 -- Sn 4              0.34        2.11696
         O 44 -- Zr 7              0.42        2.11768
         O 17 -- Zr 8              0.42        2.11785
         O 24 -- Zr 6              0.42        2.11799
         O 22 -- Sn 7              0.33        2.11811
         O 16 -- Zr 8              0.42        2.11811
         O 39 -- Zr 6              0.45        2.11845
         O 54 -- Zr 1              0.42        2.11911
         O 42 -- Zr 2              0.44        2.11916
         O 29 -- Zr 4              0.44        2.11917
         O 28 -- Zr 4              0.44        2.11928
         O 25 -- Zr 6              0.45        2.11931
         O 33 -- Zr 3              0.44        2.11948
         O 31 -- Zr 5              0.45        2.11955
         O 16 -- Zr 5              0.42        2.12037
         O 51 -- Zr 5              0.41        2.12069
         O 48 -- Zr 1              0.43        2.12073
         O 14 -- Zr 7              0.42        2.12103
         O 10 -- Zr 6              0.42        2.12105
         O 21 -- Sn 5              0.33        2.12116
         O 38 -- Zr 2              0.45        2.12155
         O 43 -- Zr 2              0.44        2.12179
         O 46 -- Zr 4              0.43        2.12191
         O 56 -- Zr 1              0.44        2.12193
         O 54 -- Zr 6              0.42        2.12202
         O 26 -- Zr 8              0.45        2.12220
         O 53 -- Zr 3              0.44        2.12226
         O 21 -- Sn 2              0.33        2.12261
         O 41 -- Zr 8              0.46        2.12267
         O 30 -- Zr 7              0.45        2.12292
         O 32 -- Zr 8              0.44        2.12336
         O 52 -- Zr 7              0.42        2.12405
         O 40 -- Zr 3              0.45        2.12466
         O 46 -- Zr 3              0.42        2.12566
         O 35 -- Zr 2              0.45        2.12605
         O 50 -- Zr 1              0.45        2.12613
         O 47 -- Zr 5              0.45        2.12629
         O 20 -- Zr 4              0.45        2.12730
         O 4  -- La 4              0.17        2.35691
         O 5  -- La 15             0.18        2.35698
         O 2  -- La 7              0.19        2.35703
         O 6  -- La 1              0.18        2.35723
         O 1  -- La 10             0.18        2.35788
         O 7  -- La 7              0.18        2.35814
         O 3  -- La 3              0.17        2.35829
         O 1  -- La 1              0.19        2.35869
         O 8  -- La 4              0.19        2.35872
         O 8  -- La 10             0.18        2.35897
         O 1  -- La 15             0.19        2.35957
         O 5  -- La 2              0.17        2.35966
         O 4  -- La 16             0.17        2.35981
         O 2  -- La 2              0.18        2.35984
         O 7  -- La 16             0.18        2.36003
         O 2  -- La 13             0.18        2.36008
         O 6  -- La 14             0.18        2.36013
         O 3  -- La 5              0.16        2.36022
         O 8  -- La 13             0.17        2.36030
         O 7  -- La 3              0.18        2.36047
         O 6  -- La 12             0.16        2.36082
         O 8  -- La 5              0.18        2.36088
         O 5  -- La 6              0.18        2.36091
         O 3  -- La 14             0.18        2.36095
         O 1  -- La 11             0.17        2.36120
         O 2  -- La 12             0.18        2.36128
         O 4  -- La 6              0.17        2.36129
         O 7  -- La 11             0.16        2.36171
         O 5  -- La 8              0.17        2.36343
         O 3  -- La 8              0.16        2.36426
         O 6  -- La 9              0.16        2.36482
         O 4  -- La 9              0.16        2.36504
         O 16 -- La 5              0.13        2.65811
         O 36 -- La 2              0.12        2.65827
         O 44 -- La 13             0.13        2.66022
         O 54 -- La 3              0.14        2.66152
         O 21 -- La 8              0.24        2.66241
         O 11 -- La 8              0.23        2.66261
         O 22 -- La 9              0.24        2.66269
         O 51 -- La 1              0.13        2.66320
         O 24 -- La 10             0.13        2.66328
         O 14 -- La 16             0.14        2.66346
         O 52 -- La 2              0.13        2.66386
         O 46 -- La 15             0.13        2.66399
         O 10 -- La 13             0.12        2.66406
         O 17 -- La 10             0.12        2.66457
         O 12 -- La 9              0.23        2.66566
         O 51 -- La 14             0.14        2.66684
         O 13 -- La 11             0.23        2.66745
         O 53 -- La 9              0.19        2.66748
         O 47 -- La 11             0.18        2.66769
         O 20 -- La 12             0.19        2.66784
         O 17 -- La 15             0.13        2.66788
         O 46 -- La 1              0.14        2.66807
         O 49 -- La 12             0.17        2.66808
         O 36 -- La 15             0.13        2.66844
         O 52 -- La 6              0.14        2.66851
         O 37 -- La 8              0.24        2.66905
         O 54 -- La 7              0.13        2.66929
         O 19 -- La 9              0.24        2.66934
         O 44 -- La 2              0.12        2.67006
         O 18 -- La 8              0.24        2.67024
         O 34 -- La 11             0.23        2.67053
         O 30 -- La 11             0.18        2.67059
         O 10 -- La 7              0.13        2.67067
         O 28 -- La 16             0.18        2.67081
         O 23 -- La 11             0.16        2.67120
         O 24 -- La 13             0.12        2.67164
         O 45 -- La 5              0.18        2.67165
         O 48 -- La 6              0.18        2.67167
         O 27 -- La 9              0.24        2.67170
         O 40 -- La 9              0.18        2.67223
         O 29 -- La 6              0.18        2.67272
         O 25 -- La 8              0.18        2.67273
         O 15 -- La 12             0.24        2.67293
         O 55 -- La 10             0.17        2.67320
         O 56 -- La 2              0.17        2.67339
         O 14 -- La 6              0.13        2.67347
         O 43 -- La 14             0.19        2.67405
         O 32 -- La 12             0.17        2.67484
         O 39 -- La 8              0.18        2.67524
         O 38 -- La 4              0.19        2.67526
         O 55 -- La 1              0.18        2.67534
         O 9  -- La 11             0.18        2.67541
         O 27 -- La 12             0.24        2.67555
         O 42 -- La 16             0.18        2.67557
         O 42 -- La 4              0.18        2.67579
         O 26 -- La 5              0.18        2.67584
         O 43 -- La 3              0.18        2.67631
         O 16 -- La 14             0.14        2.67635
         O 56 -- La 7              0.18        2.67651
         O 21 -- La 6              0.25        2.67656
         O 48 -- La 4              0.18        2.67778
         O 31 -- La 5              0.17        2.67786
         O 31 -- La 13             0.18        2.67795
         O 45 -- La 3              0.18        2.67825
         O 35 -- La 3              0.19        2.67832
         O 38 -- La 10             0.17        2.67859
         O 29 -- La 15             0.17        2.67861
         O 41 -- La 12             0.18        2.67897
         O 15 -- La 13             0.23        2.67925
         O 50 -- La 5              0.19        2.67954
         O 35 -- La 16             0.20        2.67966
         O 19 -- La 16             0.24        2.67968
         O 26 -- La 10             0.17        2.67981
         O 33 -- La 13             0.16        2.67990
         O 12 -- La 6              0.25        2.68004
         O 11 -- La 14             0.25        2.68037
         O 28 -- La 7              0.17        2.68046
         O 33 -- La 4              0.19        2.68066
         O 18 -- La 5              0.22        2.68127
         O 22 -- La 14             0.25        2.68176
         O 49 -- La 1              0.18        2.68195
         O 37 -- La 2              0.23        2.68237
         O 34 -- La 3              0.24        2.68243
         O 50 -- La 4              0.19        2.68284
         O 13 -- La 15             0.23        2.68381
         O 41 -- La 2              0.18        2.68511
         O 32 -- La 14             0.19        2.68680
         O 23 -- La 7              0.18        2.68869
         O 20 -- La 7              0.18        2.68951
         O 39 -- La 3              0.18        2.69193
         O 40 -- La 4              0.18        2.69327
         O 47 -- La 1              0.19        2.69365
         O 9  -- La 10             0.17        2.69371
         O 53 -- La 1              0.18        2.69445
         O 25 -- La 15             0.18        2.69459
         O 30 -- La 16             0.18        2.69656
         O 9  -- O 23             -0.06        2.79341
         O 13 -- O 34             -0.06        2.79344
         O 15 -- O 32             -0.06        2.79528
         O 13 -- O 30             -0.06        2.79541
         O 34 -- O 47             -0.06        2.79550
         O 26 -- O 55             -0.06        2.79584
         O 11 -- O 37             -0.05        2.79646
         O 19 -- O 22             -0.05        2.79663
         O 41 -- O 49             -0.06        2.79684
         O 31 -- O 45             -0.06        2.79700
         O 12 -- O 53             -0.06        2.79705
         O 37 -- O 56             -0.06        2.79734
         O 33 -- O 48             -0.06        2.79793
         O 34 -- O 43             -0.06        2.79816
         O 28 -- O 56             -0.06        2.79845
         O 18 -- O 26             -0.06        2.79867
         O 18 -- O 25             -0.06        2.79889
         O 18 -- O 21             -0.05        2.80008
         O 12 -- O 29             -0.06        2.80029
         O 19 -- O 27             -0.05        2.80079
         O 13 -- O 29             -0.06        2.80081
         O 37 -- O 39             -0.06        2.80084
         O 15 -- O 31             -0.06        2.80133
         O 15 -- O 27             -0.05        2.80137
         O 15 -- O 33             -0.06        2.80293
         O 12 -- O 22             -0.05        2.80395
         O 35 -- O 45             -0.06        2.80396
         O 18 -- O 50             -0.06        2.80420
         O 42 -- O 50             -0.06        2.80421
         O 11 -- O 21             -0.05        2.80430
         O 9  -- O 38             -0.06        2.80473
         O 19 -- O 28             -0.06        2.80496
         O 20 -- O 27             -0.06        2.80559
         O 19 -- O 35             -0.06        2.80668
         O 53 -- O 55             -0.06        2.80694
         O 27 -- O 40             -0.06        2.80719
         O 21 -- O 48             -0.06        2.80733
         O 17 -- O 24             -0.04        2.80735
         O 38 -- O 40             -0.06        2.80749
         O 22 -- O 43             -0.05        2.80866
         O 20 -- O 23             -0.06        2.80917
         O 37 -- O 41             -0.06        2.80918
         O 30 -- O 42             -0.06        2.80922
         O 47 -- O 49             -0.06        2.80972
         O 36 -- O 44             -0.03        2.80988
         O 24 -- O 44             -0.03        2.81110
         O 11 -- O 32             -0.05        2.81208
         O 11 -- O 22             -0.05        2.81213
         O 34 -- O 39             -0.05        2.81245
         O 12 -- O 21             -0.05        2.81316
         O 13 -- O 25             -0.05        2.81348
         O 10 -- O 24             -0.03        2.81365
         O 17 -- O 36             -0.03        2.81368
         O 16 -- O 26             -0.03        2.81447
         O 44 -- O 52             -0.03        2.81551
         O 52 -- O 56             -0.03        2.81573
         O 36 -- O 46             -0.03        2.81625
         O 10 -- O 54             -0.03        2.81698
         O 14 -- O 28             -0.03        2.81700
         O 33 -- O 44             -0.03        2.81747
         O 51 -- O 55             -0.03        2.81757
         O 10 -- O 31             -0.03        2.81798
         O 36 -- O 41             -0.03        2.81836
         O 14 -- O 52             -0.03        2.81859
         O 46 -- O 49             -0.03        2.81871
         O 20 -- O 49             -0.03        2.81983
         O 48 -- O 52             -0.03        2.81987
         O 23 -- O 47             -0.03        2.82052
         O 45 -- O 54             -0.03        2.82077
         O 16 -- O 51             -0.03        2.82209
         O 38 -- O 55             -0.03        2.82218
         O 10 -- O 23             -0.03        2.82265
         O 9  -- O 24             -0.03        2.82306
         O 38 -- O 42             -0.03        2.82333
         O 16 -- O 31             -0.03        2.82366
         O 17 -- O 26             -0.03        2.82434
         O 45 -- O 50             -0.03        2.82442
         O 40 -- O 53             -0.03        2.82445
         O 29 -- O 46             -0.03        2.82458
         O 35 -- O 42             -0.03        2.82489
         O 9  -- O 30             -0.03        2.82578
         O 14 -- O 29             -0.03        2.82600
         O 54 -- O 56             -0.03        2.82663
         O 43 -- O 51             -0.03        2.82818
         O 39 -- O 54             -0.03        2.82836
         O 47 -- O 51             -0.03        2.82903
         O 46 -- O 53             -0.03        2.82986
         O 14 -- O 30             -0.03        2.83088
         O 17 -- O 25             -0.03        2.83101
         O 25 -- O 39             -0.03        2.83291
         O 16 -- O 32             -0.03        2.83312
         O 35 -- O 43             -0.03        2.83475
         O 32 -- O 41             -0.03        2.83484
         O 48 -- O 50             -0.03        2.83612
         O 20 -- O 28             -0.03        2.83682
         O 33 -- O 40             -0.03        2.83868
============================================================
 

Writing analysis data to 048.castep_bin

Writing model to 048.check
 
 A BibTeX formatted list of references used in this run has been written to 
 048.bib
 
Initialisation time =     53.98 s
Calculation time    =  33802.81 s
Finalisation time   =     74.63 s
Total time          =  33931.42 s
Peak Memory Use     = 2839604 kB
  
Overall parallel efficiency rating: Good (79%)                                  
  
Data was distributed by:-
G-vector (4-way); efficiency rating: Very good (80%)                            
k-point (14-way); efficiency rating: Excellent (99%)                            
