 +-------------------------------------------------+
 |                                                 |
 |      CCC   AA    SSS  TTTTT  EEEEE  PPPP        |
 |     C     A  A  S       T    E      P   P       |
 |     C     AAAA   SS     T    EEE    PPPP        |
 |     C     A  A     S    T    E      P           |
 |      CCC  A  A  SSS     T    EEEEE  P           |
 |                                                 |
 +-------------------------------------------------+
 |                                                 |
 | Welcome to Academic Release CASTEP version 16.11|          
 | Ab Initio Total Energy Program                  |
 |                                                 |
 | Authors:                                        |
 | M. Segall, M. Probert, C. Pickard, P. Hasnip,   |
 | S. Clark, K. Refson, J. R. Yates, M. Payne      |
 |                                                 |
 | Contributors:                                   |
 | P. Lindan, P. Haynes, J. White, V. Milman,      |
 | N. Govind, M. Gibson, P. Tulip, V. Cocula,      |
 | B. Montanari, D. Quigley, M. Glover,            |
 | L. Bernasconi, A. Perlov, M. Plummer,           |
 | E. McNellis, J. Meyer, J. Gale, D. Jochym       |
 | J. Aarons, B. Walker, R. Gillen, D. Jones       |
 | T. Green, I. J. Bush, C. J. Armstrong,          |
 | E. J. Higgins, E. L. Brown, M. S. McFly         |
 |                                                 |
 | Copyright (c) 2000 - 2015                       |
 |                                                 |
 |     Distributed under the terms of an           |
 |     Agreement between the United Kingdom        |
 |     Car-Parrinello (UKCP) Consortium,           |
 |     Daresbury Laboratory and Accelrys, Inc.     |
 |                                                 |
 | Please cite                                     |
 |                                                 |
 |     "First principles methods using CASTEP"     |
 |                                                 |
 |         Zeitschrift fuer Kristallographie       |
 |           220(5-6) pp. 567-570 (2005)           |
 |                                                 |
 | S. J. Clark, M. D. Segall, C. J. Pickard,       |
 | P. J. Hasnip, M. J. Probert, K. Refson,         |
 | M. C. Payne                                     |
 |                                                 |
 |       in all publications arising from          |
 |              your use of CASTEP                 |
 |                                                 |
 +-------------------------------------------------+
 
 
 Compiled for linux_x86_64_ifort16 on Sat, 23 Jul 2016 23:44:54 +0100
 from code version 
 203e84763863+ Castep161_branch Fri, 04 Mar 2016 19:21:07 +0000
 Compiler: Intel Fortran 16.0.3.210; Optimisation: fast
 MATHLIBS: Intel MKL(11.3.3) (LAPACK version 3.6.0)
 FFT Lib : mkl
 Fundamental constants values: CODATA 2010
 
 Run started: Sun, 13 May 2018 11:21:31 +0100
 +-------------------------------------------------+
 |                                                 |
 |           N   N    M   M    RRRR                |
 |           NN  N    MM MM    R   R               |
 |           N N N    M M M    RRRR                |
 |           N  NN    M   M    R  R                |
 |           N   N    M   M    R   R               |
 |                                                 |
 +-------------------------------------------------+
 |                                                 |
 | Welcome to Materials Studio CASTEP-NMR          |
 |                                                 |
 | Authors:                                        |
 | J.R. Yates, C.J. Pickard, F. Mauri              |
 |                                                 |
 | Contributors:                                   |
 | T.F.G. Green, S.A. Joyce                        |
 |                                                 |
 | Copyright (c) 2004 - 2015                       |
 |                                                 |
 | Please cite the appropriate publications in all |
 | work arising from your use of CASTEP NMR.       |
 |                                                 |
 | For NMR Shielding Tensors cite:                 |
 |    "All-electron magnetic response with         |
 |    pseudopotentials: NMR chemical shifts",      |
 |    C. J. Pickard, F. Mauri;                     |
 |    Physical Review B63 245101 (2001), and       |
 |                                                 |
 |    "Calculation of NMR Chemical Shifts          |
 |    for extended systems using                   |
 |    Ultrasoft Pseudopotentials",                 |
 |    J. R. Yates, C. J. Pickard and F. Mauri      |
 |    Physical Review B76 024401 (2007)            |
 |                                                 |
 | For Electric Field Gradients cite:              |
 |   "Accurate First Principles Prediction of 17O  |
 |    NMR Parameters in SiO2: Assignment of the    |
 |    Zeolite Ferrierite Spectrum"                 |
 |    M. Profeta, F. Mauri and C. J. Pickard       |
 |    J. Amer. Chem. Soc. 125 541 (2003)           |
 |                                                 |
 | For Spin-Spin (J) Couplings cite:               |
 |   "A first principles theory of NMR J-coupling  |
 |   in solid-state systems"                       |
 |   S.A. Joyce, J.R. Yates, C.J. Pickard, F. Mauri|
 |   J. Chem. Phys. 127 204107 (2007)              |
 |                                                 |
 |   "Relativistic NMR J-coupling with ultrasoft   |
 |   pseudopotentials and the zeroth-order regular |
 |   approximation"                                |
 |   T.F.G. Green and J.R. Yates                   |
 |   J. Chem. Phys. 140 234106 (2014)              |
 |                                                 |
 +-------------------------------------------------+
 
 
 Atomic calculation performed for O: 1s2 2s2 2p4
 
 Converged in 44 iterations to an ae energy of -2040.855 eV
 
 
 Atomic calculation performed for O: 1s2 2s2 2p4
 
 Exceeded max iterations: converged to 0.000000062 eV
 
   ============================================================                
   | Pseudopotential Report - Date of generation 13-05-2018   |                
   ------------------------------------------------------------                
   | Element: O Ionic charge:  6.00 Level of theory: PBE      |                
   | Atomic Solver: ZORA (scalar)                             |                
   |                                                          |                
   |               Reference Electronic Structure             |                
   |         Orbital         Occupation         Energy        |                
   |            2s              2.000           -0.881        |                
   |            2p              4.000           -0.332        |                
   |                                                          |                
   |                 Pseudopotential Definition               |                
   |        Beta     l      e      Rc     scheme   norm       |                
   |          1      0   -0.881   1.100     qc      0         |                
   |          2      0    0.250   1.100     qc      0         |                
   |          3      1   -0.332   1.100     qc      0         |                
   |          4      1    0.250   1.100     qc      0         |                
   |         loc     2    0.000   1.100     pn      0         |                
   |                                                          |                
   | Augmentation charge Rinner = 0.769                       |                
   | Partial core correction Rc = 0.769                       |                
   ------------------------------------------------------------                
   | "2|1.1|15|18|20|20:21(qc=7)"                             |                
   ------------------------------------------------------------                
   |      Author: Chris J. Pickard, Cambridge University      |                
   ============================================================                
 
 Atomic calculation performed for Zr: 1s2 2s2 2p6 3s2 3p6 3d10 4s2 4p6 4d2 5s2
 
 Converged in 53 iterations to an ae energy of -97719.888 eV
 
 
 Atomic calculation performed for Zr: 1s2 2s2 2p6 3s2 3p6 3d10 4s2 4p6 4d2 5s2
 
 Exceeded max iterations: converged to 0.000000970 eV
 
 Warning: ion_atom_descreen_psp: negative charge density encountered
   ============================================================                
   | Pseudopotential Report - Date of generation 13-05-2018   |                
   ------------------------------------------------------------                
   | Element: Zr Ionic charge: 12.00 Level of theory: PBE     |                
   | Atomic Solver: ZORA (scalar)                             |                
   |                                                          |                
   |               Reference Electronic Structure             |                
   |         Orbital         Occupation         Energy        |                
   |            4s              2.000           -2.003        |                
   |            4p              6.000           -1.193        |                
   |            5s              2.000           -0.163        |                
   |            4d              2.000           -0.132        |                
   |                                                          |                
   |                 Pseudopotential Definition               |                
   |        Beta     l      e      Rc     scheme   norm       |                
   |          1      0   -2.003   2.105     qc      0         |                
   |          2      0   -0.163   2.105     qc      0         |                
   |          3      0    0.250   2.105     qc      0         |                
   |          4      1   -1.193   2.105     qc      0         |                
   |          5      1    0.250   2.105     qc      0         |                
   |          6      2   -0.132   2.105     qc      0         |                
   |          7      2    0.250   2.105     qc      0         |                
   |         loc     3    0.000   2.105     pn      0         |                
   |                                                          |                
   | Augmentation charge Rinner = 1.471                       |                
   | Partial core correction Rc = 1.471                       |                
   ------------------------------------------------------------                
   | "3|2.1|7|8|9|40U:50:41:42"                               |                
   ------------------------------------------------------------                
   |      Author: Chris J. Pickard, Cambridge University      |                
   ============================================================                
 
 Atomic calculation performed for Sn:
 1s2 2s2 2p6 3s2 3p6 3d10 4s2 4p6 4d10 5s2 5p2
 
 Converged in 58 iterations to an ae energy of -167539.320 eV
 
 
 Atomic calculation performed for Sn:
 1s2 2s2 2p6 3s2 3p6 3d10 4s2 4p6 4d10 5s2 5p2
 
 Exceeded max iterations: converged to 0.000001154 eV
 
   ============================================================                
   | Pseudopotential Report - Date of generation 13-05-2018   |                
   ------------------------------------------------------------                
   | Element: Sn Ionic charge: 14.00 Level of theory: PBE     |                
   | Atomic Solver: ZORA (scalar)                             |                
   |                                                          |                
   |               Reference Electronic Structure             |                
   |         Orbital         Occupation         Energy        |                
   |            4d             10.000           -0.950        |                
   |            5s              2.000           -0.388        |                
   |            5p              2.000           -0.136        |                
   |                                                          |                
   |                 Pseudopotential Definition               |                
   |        Beta     l      e      Rc     scheme   norm       |                
   |          1      0   -0.388   2.199     qc      0         |                
   |          2      0    0.250   2.199     qc      0         |                
   |          3      1   -0.136   2.199     qc      0         |                
   |          4      1    0.250   2.199     qc      0         |                
   |          5      2   -0.950   2.199     qc      0         |                
   |          6      2    0.250   2.199     qc      0         |                
   |         loc     3    0.000   2.199     pn      0         |                
   |                                                          |                
   | Augmentation charge Rinner = 1.537                       |                
   | Partial core correction Rc = 1.537                       |                
   ------------------------------------------------------------                
   | "3|2.2|7|8|9|50:51:42"                                   |                
   ------------------------------------------------------------                
   |      Author: Chris J. Pickard, Cambridge University      |                
   ============================================================                
 
 Atomic calculation performed for La:
 1s2 2s2 2p6 3s2 3p6 3d10 4s2 4p6 4d10 5s2 5p6 5d1 6s2
 
 Converged in 56 iterations to an ae energy of -230121.495 eV
 
 
 Atomic calculation performed for La:
 1s2 2s2 2p6 3s2 3p6 3d10 4s2 4p6 4d10 5s2 5p6 5d1 6s2
 
 Exceeded max iterations: converged to 0.000000907 eV
 
 Warning: ion_atom_descreen_psp: negative charge density encountered
   ============================================================                
   | Pseudopotential Report - Date of generation 13-05-2018   |                
   ------------------------------------------------------------                
   | Element: La Ionic charge: 11.00 Level of theory: PBE     |                
   | Atomic Solver: ZORA (scalar)                             |                
   |                                                          |                
   |               Reference Electronic Structure             |                
   |         Orbital         Occupation         Energy        |                
   |            5s              2.000           -1.430        |                
   |            5p              6.000           -0.823        |                
   |            6s              2.000           -0.135        |                
   |            5d              1.000           -0.114        |                
   |                                                          |                
   |                 Pseudopotential Definition               |                
   |        Beta     l      e      Rc     scheme   norm       |                
   |          1      0   -1.430   2.298     qc      0         |                
   |          2      0   -0.135   2.298     qc      0         |                
   |          3      0    0.250   2.298     qc      0         |                
   |          4      1   -0.823   2.298     qc      0         |                
   |          5      1    0.250   2.298     qc      0         |                
   |          6      2   -0.114   2.298     qc      0         |                
   |          7      2    0.250   2.298     qc      0         |                
   |         loc     2    0.000   2.298     pn      0         |                
   |                                                          |                
   | Augmentation charge Rinner = 1.606                       |                
   | Partial core correction Rc = 1.606                       |                
   ------------------------------------------------------------                
   | "2|2.3|5|6|7|50U:60:51:52(qc=4.5)"                       |                
   ------------------------------------------------------------                
   |      Author: Chris J. Pickard, Cambridge University      |                
   ============================================================                
 
 Pseudo atomic calculation performed for O 2s2 2p4
 
 Converged in 39 iterations to a total energy of -432.6554 eV
 
 
 Pseudo atomic calculation performed for Zr 4s2 4p6 4d2 5s2
 
 Converged in 38 iterations to a total energy of -1285.4931 eV
 
 
 Pseudo atomic calculation performed for Sn 4d10 5s2 5p2
 
 Converged in 48 iterations to a total energy of -2044.5414 eV
 
 
 Pseudo atomic calculation performed for La 5s2 5p6 5d1 6s2
 
 Converged in 34 iterations to a total energy of -968.0372 eV
 
 Calculation parallelised over 56 processes.
 Data is distributed by G-vector(4-way) and k-point(14-way)

 ************************************ Title ************************************
 nmr testing

 ***************************** General Parameters ******************************
  
 output verbosity                               : normal  (1)
 write checkpoint data to                       : 055.check
 type of calculation                            : Magnetic Resonance
 stress calculation                             : on
 density difference calculation                 : off
 electron localisation func (ELF) calculation   : off
 Hirshfeld analysis                             : off
 unlimited duration calculation
 timing information                             : on
 memory usage estimate                          : on
 write final potential to formatted file        : off
 write final density to formatted file          : off
 write structure in CIF formatted file          : on
 write structure in CELL formatted file         : on
 write BibTeX reference list                    : on
 write OTFG pseudopotential files               : on
 checkpoint writing                             : both castep_bin and check files
  
 output         length unit                     : A
 output           mass unit                     : amu
 output           time unit                     : ps
 output         charge unit                     : e
 output           spin unit                     : hbar/2
 output         energy unit                     : eV
 output          force unit                     : eV/A
 output       velocity unit                     : A/ps
 output       pressure unit                     : GPa
 output     inv_length unit                     : 1/A
 output      frequency unit                     : cm-1
 output force constant unit                     : eV/A**2
 output         volume unit                     : A**3
 output   IR intensity unit                     : (D/A)**2/amu
 output         dipole unit                     : D
 output         efield unit                     : eV/A/e
 output        entropy unit                     : J/mol/K
  
 wavefunctions paging                           : none
 random number generator seed                   : randomised (112132784)
 data distribution                              : optimal for this architecture
 optimization strategy                          : maximize speed(+++)

 *********************** Exchange-Correlation Parameters ***********************
  
 using functional                               : Perdew Burke Ernzerhof
 relativistic treatment                         : ZORA
 DFT+D: Semi-empirical dispersion correction    : off

 ************************* Pseudopotential Parameters **************************
  
 pseudopotential representation                 : reciprocal space
 <beta|phi> representation                      : reciprocal space
 spin-orbit coupling                            : off

 **************************** Basis Set Parameters *****************************
  
 plane wave basis set cut-off                   :   816.3416   eV
 size of standard grid                          :     1.7500
 size of   fine   gmax                          :    25.6161   1/A
 finite basis set correction                    : automatic
 number of sample energies                      :          3
           sample  spacing                      :     5.0000   eV

 **************************** Electronic Parameters ****************************
  
 number of  electrons                           :  720.0    
 net charge of system                           :  0.000    
 treating system as non-spin-polarized
 number of bands                                :        432

 ********************* Electronic Minimization Parameters **********************
  
 Method: Treating system as metallic with density mixing treatment of electrons,
         and number of  SD  steps               :          1
         and number of  CG  steps               :          4
  
 total energy / atom convergence tol.           : 0.1000E-08   eV
 eigen-energy convergence tolerance             : 0.2444E-09   eV
 max force / atom convergence tol.              : ignored
 convergence tolerance window                   :          3   cycles
 max. number of SCF cycles                      :         50
 number of fixed-spin iterations                :         10
 smearing scheme                                : Gaussian
 smearing width                                 : 0.2000       eV
 Fermi energy convergence tolerance             : 0.2721E-13   eV
 periodic dipole correction                     : NONE

 ************************** Density Mixing Parameters **************************
  
 density-mixing scheme                          : Broyden
 max. length of mixing history                  :         20
 charge density mixing amplitude                : 0.8000    
 cut-off energy for mixing                      :  816.3       eV

 *********************** Population Analysis Parameters ************************
  
 Population analysis with cutoff                :  3.000       A

 ************************ Magnetic Resonance Parameters ************************
  
 Magnetic Resonance Property                    : Chemical Shielding + EFG
 Position Operator Method                       : crystal
 max. number of MagRes CG steps                 :        250
 convergence tolerance window                   :          2   cycles
 energy convergence tolerance                   : 0.1000E-11   eV
 band convergence tolerance                     : 0.1000E-08   eV

 *******************************************************************************
  
 
                           -------------------------------
                                      Unit Cell
                           -------------------------------
        Real Lattice(A)                      Reciprocal Lattice(1/A)
  10.9031792   0.0000815   0.0000631        0.5762709  -0.0000043  -0.0000033
   0.0000814  10.8961930   0.0000273       -0.0000043   0.5766404  -0.0000014
   0.0000632   0.0000273  10.9030593       -0.0000033  -0.0000014   0.5762773
 
                       Lattice parameters(A)       Cell Angles
                    a =   10.903179          alpha =   89.999713
                    b =   10.896193          beta  =   89.999336
                    c =   10.903059          gamma =   89.999144
 
                       Current cell volume = 1295.317736       A**3
 
                           -------------------------------
                                     Cell Contents
                           -------------------------------
                         Total number of ions in cell =   88
                      Total number of species in cell =    4
                        Max number of any one species =   56
 
            xxxxxxxxxxxxxxxxxxxxxxxxxxxxxxxxxxxxxxxxxxxxxxxxxxxxxxxxxxxx
            x  Element    Atom        Fractional coordinates of atoms  x
            x            Number           u          v          w      x
            x----------------------------------------------------------x
            x  O            1         0.124967   0.124718   0.124996   x 
            x  O            2         0.624996   0.125269   0.624965   x 
            x  O            3         0.124982   0.624980   0.624978   x 
            x  O            4         0.624992   0.624960   0.124991   x 
            x  O            5         0.874499   0.374988   0.374830   x 
            x  O            6         0.874851   0.874948   0.875436   x 
            x  O            7         0.375438   0.375008   0.875113   x 
            x  O            8         0.375111   0.874948   0.374517   x 
            x  O            9         0.420487   0.125521   0.124624   x 
            x  O           10         0.330452   0.124706   0.624673   x 
            x  O           11         0.828713   0.626117   0.624874   x 
            x  O           12         0.920522   0.623975   0.124732   x 
            x  O           13         0.124962   0.418842   0.124984   x 
            x  O           14         0.625011   0.330461   0.125004   x 
            x  O           15         0.624988   0.831114   0.624969   x 
            x  O           16         0.124979   0.919139   0.624978   x 
            x  O           17         0.124661   0.125254   0.419512   x 
            x  O           18         0.125096   0.623831   0.328716   x 
            x  O           19         0.624737   0.625940   0.829439   x 
            x  O           20         0.625469   0.124570   0.920492   x 
            x  O           21         0.874284   0.671210   0.375574   x 
            x  O           22         0.875580   0.578720   0.875686   x 
            x  O           23         0.373855   0.078729   0.873857   x 
            x  O           24         0.373872   0.171250   0.376106   x 
            x  O           25         0.168769   0.374307   0.374980   x 
            x  O           26         0.079375   0.875597   0.376305   x 
            x  O           27         0.579218   0.874500   0.873791   x 
            x  O           28         0.669367   0.375640   0.875286   x 
            x  O           29         0.876207   0.375488   0.079244   x 
            x  O           30         0.373802   0.375460   0.170757   x 
            x  O           31         0.374971   0.875633   0.668757   x 
            x  O           32         0.874991   0.875651   0.581159   x 
            x  O           33         0.670758   0.874514   0.376180   x 
            x  O           34         0.081158   0.374314   0.874985   x 
            x  O           35         0.375675   0.671197   0.874376   x 
            x  O           36         0.876135   0.078749   0.376138   x 
            x  O           37         0.876295   0.374361   0.670570   x 
            x  O           38         0.375263   0.874318   0.080610   x 
            x  O           39         0.124982   0.330828   0.624980   x 
            x  O           40         0.625038   0.919553   0.125044   x 
            x  O           41         0.919514   0.124700   0.625259   x 
            x  O           42         0.329443   0.623986   0.125240   x 
            x  O           43         0.124866   0.623827   0.921249   x 
            x  O           44         0.624584   0.124531   0.329521   x 
            x  O           45         0.421258   0.626111   0.625086   x 
            x  O           46         0.829519   0.125490   0.125426   x 
            x  O           47         0.125269   0.125264   0.830452   x 
            x  O           48         0.625230   0.625935   0.420524   x 
            x  O           49         0.876112   0.171251   0.873871   x 
            x  O           50         0.374394   0.578719   0.374294   x 
            x  O           51         0.170559   0.875582   0.873659   x 
            x  O           52         0.580634   0.375657   0.374719   x 
            x  O           53         0.874700   0.874340   0.169373   x 
            x  O           54         0.373672   0.374373   0.579373   x 
            x  O           55         0.124976   0.830846   0.124989   x 
            x  O           56         0.624984   0.419120   0.624967   x 
            x  Zr           1         0.500107   0.499933   0.499845   x 
            x  Zr           2         0.250383   0.750197   1.000148   x 
            x  Zr           3         0.750881   0.999359   0.250888   x 
            x  Zr           4         0.750906   0.251125   0.999493   x 
            x  Zr           5         0.999773   0.750158   0.249745   x 
            x  Zr           6         0.499656   0.999522   0.999674   x 
            x  Zr           7         0.749759   0.499882   0.750335   x 
            x  Zr           8         0.499530   0.251145   0.250891   x 
            x  Sn           1         0.001262   0.249130   0.749133   x 
            x  Sn           2         0.249168   0.000821   0.748744   x 
            x  Sn           3         0.248717   0.249129   0.500835   x 
            x  Sn           4         0.749889   0.750550   0.500382   x 
            x  Sn           5         0.249588   0.499414   0.249891   x 
            x  Sn           6         0.000439   0.499464   0.000048   x 
            x  Sn           7         0.500079   0.750601   0.749626   x 
            x  Sn           8         0.000875   0.000794   0.501304   x 
            x  La           1         0.999924   0.999606   0.000497   x 
            x  La           2         0.749461   0.250340   0.499976   x 
            x  La           3         0.250256   0.500263   0.750232   x 
            x  La           4         0.499796   0.750034   0.249535   x 
            x  La           5         0.250230   0.749701   0.499709   x 
            x  La           6         0.749574   0.500018   0.250182   x 
            x  La           7         0.500506   0.250294   0.750079   x 
            x  La           8         0.999710   0.500268   0.499747   x 
            x  La           9         0.750140   0.750046   0.000404   x 
            x  La          10         0.250081   0.999628   0.249426   x 
            x  La          11         0.250589   0.249529   0.000206   x 
            x  La          12         0.749718   0.000390   0.750596   x 
            x  La          13         0.500192   0.000380   0.499416   x 
            x  La          14         0.999747   0.749701   0.750265   x 
            x  La          15         0.999461   0.249566   0.249762   x 
            x  La          16         0.500381   0.499967   0.999779   x 
            xxxxxxxxxxxxxxxxxxxxxxxxxxxxxxxxxxxxxxxxxxxxxxxxxxxxxxxxxxxx
 
 
                         No user defined ionic velocities
 
                           -------------------------------
                                   Details of Species
                           -------------------------------
 
                               Mass of species in AMU
                                    O   15.9994000
                                    Zr   91.2240000
                                    Sn  118.7100000
                                    La  138.9055000
 
                          Electric Quadrupole Moment (Barn)
                                    O   -0.0255800 Isotope 17
                                    Zr   -0.1760000 Isotope 91
                                    Sn    1.0000000 No Isotope Defined
                                    La    0.2000000 Isotope139
 
                          Files used for pseudopotentials:
                                    O 2|1.1|15|18|20|20:21(qc=7)
                                    Zr 3|2.1|7|8|9|40U:50:41:42
                                    Sn 3|2.2|7|8|9|50:51:42
                                    La 2|2.3|5|6|7|50U:60:51:52(qc=4.5)
 
                           -------------------------------
                              k-Points For BZ Sampling
                           -------------------------------
                       MP grid size for SCF calculation is  3  3  3
                            with an offset of   0.000  0.000  0.000
                       Number of kpoints used =            14
 
                           -------------------------------
                               Symmetry and Constraints
                           -------------------------------
 
                      Maximum deviation from symmetry =  0.00000         ANG
 
         There are no symmetry operations specified or generated for this cell
                      Number of ionic constraints     =           3
                      Point group of crystal =     1: C1, 1, 1
                      Space group of crystal =     1: P1, P 1
 
 
                         Centre of mass is constrained
             Set iprint > 1 for details of linear ionic constraints
 
                         Number of cell constraints= 0
                         Cell constraints are:  1 2 3 4 5 6
 
                         External pressure/stress (GPa)
                          0.00000   0.00000   0.00000
                                    0.00000   0.00000
                                              0.00000
  
+---------------- MEMORY AND SCRATCH DISK ESTIMATES PER PROCESS --------------+
|                                                     Memory          Disk    |
| Baseline code, static data and system overhead      322.0 MB         0.0 MB |
| BLAS internal memory storage                          0.0 MB         0.0 MB |
| Model and support data                             1319.1 MB         0.0 MB |
| Electronic energy minimisation requirements         381.7 MB         0.0 MB |
| Force calculation requirements                       24.1 MB         0.0 MB |
| Stress calculation requirements                      28.3 MB         0.0 MB |
|                                               ----------------------------- |
| Approx. total storage required per process         2022.9 MB         0.0 MB |
|                                                                             |
| Requirements will fluctuate during execution and may exceed these estimates |
+-----------------------------------------------------------------------------+
Calculating finite basis set correction with  3 cut-off energies.
Calculating total energy with cut-off of  806.342eV.
------------------------------------------------------------------------ <-- SCF
SCF loop      Energy           Fermi           Energy gain       Timer   <-- SCF
                               energy          per atom          (sec)   <-- SCF
------------------------------------------------------------------------ <-- SCF
Initial  -5.62678622E+004  0.00000000E+000                        75.11  <-- SCF
      1  -6.45246536E+004  7.50373319E+000   9.38271751E+001     212.25  <-- SCF
      2  -6.70871351E+004  6.87770517E+000   2.91191077E+001     304.56  <-- SCF
      3  -6.71704292E+004  6.46496656E+000   9.46523628E-001     411.49  <-- SCF
      4  -6.71643180E+004  7.65528338E+000  -6.94454745E-002     541.12  <-- SCF
      5  -6.70612343E+004  7.01060445E+000  -1.17140542E+000     669.26  <-- SCF
      6  -6.70626185E+004  6.89213268E+000   1.57292968E-002     828.83  <-- SCF
      7  -6.70622991E+004  6.97742409E+000  -3.62882629E-003     965.25  <-- SCF
      8  -6.70623797E+004  6.98023763E+000   9.15707301E-004    1145.72  <-- SCF
      9  -6.70624010E+004  6.97920809E+000   2.41553692E-004    1294.89  <-- SCF
     10  -6.70624011E+004  6.97701002E+000   1.80104428E-006    1433.64  <-- SCF
     11  -6.70624006E+004  6.97826434E+000  -6.09631343E-006    1577.22  <-- SCF
     12  -6.70624008E+004  6.97809411E+000   2.82867999E-006    1730.28  <-- SCF
     13  -6.70624009E+004  6.97759659E+000   1.10679161E-007    1865.04  <-- SCF
     14  -6.70624008E+004  6.97732246E+000  -3.78134021E-007    2003.74  <-- SCF
     15  -6.70624008E+004  6.97686657E+000  -1.13851343E-007    2148.37  <-- SCF
     16  -6.70624008E+004  6.97668376E+000  -7.46536213E-010    2276.20  <-- SCF
     17  -6.70624008E+004  6.97661669E+000  -4.37262951E-009    2399.41  <-- SCF
     18  -6.70624008E+004  6.97654634E+000   5.62046571E-010    2501.30  <-- SCF
     19  -6.70624008E+004  6.97650478E+000   4.36897347E-010    2596.08  <-- SCF
------------------------------------------------------------------------ <-- SCF
 
Final energy, E             =  -67062.40080778     eV
Final free energy (E-TS)    =  -67062.40080778     eV
(energies not corrected for finite basis set)
 
NB est. 0K energy (E-0.5TS)      =  -67062.40080778     eV
 
Calculating total energy with cut-off of  811.342eV.
------------------------------------------------------------------------ <-- SCF
SCF loop      Energy           Fermi           Energy gain       Timer   <-- SCF
                               energy          per atom          (sec)   <-- SCF
------------------------------------------------------------------------ <-- SCF
Initial  -6.70624008E+004  0.00000000E+000                      2631.64  <-- SCF
      1  -6.70624033E+004  6.97650801E+000   2.79578090E-005    2743.66  <-- SCF
      2  -6.70624033E+004  6.97650801E+000   2.02769866E-010    2832.73  <-- SCF
      3  -6.70624033E+004  6.97649933E+000   1.62492909E-008    2922.93  <-- SCF
      4  -6.70624033E+004  6.97650632E+000   4.87941356E-010    3011.06  <-- SCF
      5  -6.70624033E+004  6.97650472E+000  -1.40335871E-010    3099.33  <-- SCF
------------------------------------------------------------------------ <-- SCF
 
Final energy, E             =  -67062.40326954     eV
Final free energy (E-TS)    =  -67062.40326954     eV
(energies not corrected for finite basis set)
 
NB est. 0K energy (E-0.5TS)      =  -67062.40326954     eV
 
Calculating total energy with cut-off of  816.342eV.
------------------------------------------------------------------------ <-- SCF
SCF loop      Energy           Fermi           Energy gain       Timer   <-- SCF
                               energy          per atom          (sec)   <-- SCF
------------------------------------------------------------------------ <-- SCF
Initial  -6.70624033E+004  0.00000000E+000                      3134.93  <-- SCF
      1  -6.70624062E+004  6.97650161E+000   3.37815272E-005    3246.94  <-- SCF
      2  -6.70624062E+004  6.97650161E+000   2.09097636E-010    3335.31  <-- SCF
      3  -6.70624062E+004  6.97649893E+000   2.10742856E-008    3424.03  <-- SCF
      4  -6.70624062E+004  6.97650277E+000   6.88180115E-010    3512.71  <-- SCF
      5  -6.70624062E+004  6.97650108E+000  -6.56681883E-011    3600.91  <-- SCF
------------------------------------------------------------------------ <-- SCF
 
Final energy, E             =  -67062.40624425     eV
Final free energy (E-TS)    =  -67062.40624425     eV
(energies not corrected for finite basis set)
 
NB est. 0K energy (E-0.5TS)      =  -67062.40624425     eV
 
 For future reference: finite basis dEtot/dlog(Ecut) =      -0.439597eV
 Total energy corrected for finite basis set =  -67062.406224 eV
 
  =====================================================================
  +       Calculation of Nuclear Magnetic Resonance Parameters        +
  + ================================================================= +
 
  Starting Calculation of Electric Field Gradient Tensors         |<-- EFG
  +---------------- MEMORY AND SCRATCH DISK ESTIMATES PER PROCESS --------------+
  |                                                     Memory          Disk    |
  | Model and support data                             1316.9 MB         0.0 MB |
  | NMR EFG calculation requirements                    367.4 MB         0.0 MB |
  |                                               ----------------------------- |
  | Approx. total storage required per process         1684.3 MB         0.0 MB |
  |                                                                             |
  | Requirements will fluctuate during execution and may exceed these estimates |
  +-----------------------------------------------------------------------------+
  Total Time for EFG Tensors                     409.96 sec       |<-- EFG
 
  Starting Calculation of Chemical Shielding Tensors              |<-- NMR
  +---------------- MEMORY AND SCRATCH DISK ESTIMATES PER PROCESS --------------+
  |                                                     Memory          Disk    |
  | Model and support data                             1316.9 MB         0.0 MB |
  | NMR chemical shift calculation requirements         564.3 MB         0.0 MB |
  |                                               ----------------------------- |
  | Approx. total storage required per process         1881.1 MB         0.0 MB |
  |                                                                             |
  | Requirements will fluctuate during execution and may exceed these estimates |
  +-----------------------------------------------------------------------------+
  Starting k-point:   1 of   1                                    |<-- NMR
  Total Time for step 1 of 6:                   3286.83 sec       |<-- NMR
  Total Time for step 2 of 6:                   3300.07 sec       |<-- NMR
  Total Time for step 3 of 6:                   3302.49 sec       |<-- NMR
  Total Time for step 4 of 6:                   3299.11 sec       |<-- NMR
  Total Time for step 5 of 6:                   3299.06 sec       |<-- NMR
  Total Time for step 6 of 6:                   3276.55 sec       |<-- NMR
  Total Time for Chemical Shielding Tensors    29328.73 sec       |<-- NMR
 
  ========================================================================
  |           Chemical Shielding and Electric Field Gradient Tensors     |
  |----------------------------------------------------------------------|
  |     Nucleus                Shielding tensor             EFG Tensor   |
  |  Species       Ion    Iso(ppm)   Aniso(ppm)  Asym    Cq(MHz)    Eta  |
  |    O           1     -317.22      10.24      0.68  -4.097E-02   0.21 |
  |    O           2     -317.22      10.89      0.69  -4.212E-02   0.19 |
  |    O           3     -316.83      -4.02      0.01   3.857E-02   0.03 |
  |    O           4     -316.08       3.07      0.24   4.167E-03   0.19 |
  |    O           5     -318.98      -9.56      0.17  -6.912E-02   0.61 |
  |    O           6     -319.05     -10.04      0.28  -6.485E-02   0.64 |
  |    O           7     -319.04     -10.14      0.27  -6.465E-02   0.69 |
  |    O           8     -319.05      -9.78      0.31  -6.510E-02   0.66 |
  |    O           9     -160.16     144.08      0.77   1.069E+00   0.69 |
  |    O          10      -19.70      40.19      0.74   3.910E+00   0.84 |
  |    O          11      -84.02      84.73      0.24  -3.179E+00   0.08 |
  |    O          12      -91.83      93.08      0.18  -3.174E+00   0.11 |
  |    O          13        0.30      68.91      0.81   3.841E+00   0.89 |
  |    O          14     -161.17     150.33      0.76   1.012E+00   0.80 |
  |    O          15        0.27      69.20      0.80   3.840E+00   0.89 |
  |    O          16      -17.45     -36.76      0.85   3.897E+00   0.87 |
  |    O          17      -19.58      40.14      0.74   3.911E+00   0.83 |
  |    O          18      -83.99      84.86      0.24  -3.180E+00   0.08 |
  |    O          19      -92.23      94.46      0.18  -3.168E+00   0.10 |
  |    O          20     -160.19     144.47      0.77   1.067E+00   0.69 |
  |    O          21      -89.58      92.83      0.32  -3.117E+00   0.09 |
  |    O          22      -89.54      94.30      0.31  -3.117E+00   0.09 |
  |    O          23      -88.33      81.30      0.05  -3.213E+00   0.11 |
  |    O          24      -88.89      84.19      0.04  -3.210E+00   0.10 |
  |    O          25       -4.86      66.38      0.93   3.776E+00   0.92 |
  |    O          26      -87.75      84.70      0.06  -3.205E+00   0.07 |
  |    O          27      -86.42      81.69      0.24  -3.269E+00   0.11 |
  |    O          28     -164.29     157.64      0.85   1.052E+00   0.85 |
  |    O          29      -88.09      89.76      0.21  -3.251E+00   0.10 |
  |    O          30      -87.34      85.74      0.23  -3.262E+00   0.11 |
  |    O          31       -4.84      66.30      0.93   3.775E+00   0.92 |
  |    O          32       -4.45      66.38      0.92   3.777E+00   0.92 |
  |    O          33      -87.20      85.21      0.22  -3.261E+00   0.11 |
  |    O          34       -4.48      66.47      0.92   3.777E+00   0.92 |
  |    O          35      -89.64      93.96      0.32  -3.117E+00   0.09 |
  |    O          36      -89.63      88.44      0.04  -3.197E+00   0.09 |
  |    O          37      -87.86      83.72      0.06  -3.204E+00   0.07 |
  |    O          38     -164.12     156.51      0.85   1.046E+00   0.86 |
  |    O          39      -17.59     -36.80      0.85   3.897E+00   0.87 |
  |    O          40     -161.43     147.89      0.78   1.009E+00   0.80 |
  |    O          41      -19.51      40.06      0.75   3.912E+00   0.83 |
  |    O          42      -91.95      92.99      0.18  -3.171E+00   0.11 |
  |    O          43      -83.42      83.59      0.25  -3.182E+00   0.08 |
  |    O          44     -160.00     146.36      0.76   1.069E+00   0.69 |
  |    O          45      -84.60      86.64      0.24  -3.174E+00   0.08 |
  |    O          46     -159.99     146.26      0.76   1.069E+00   0.69 |
  |    O          47      -19.62      40.05      0.75   3.910E+00   0.84 |
  |    O          48      -91.97      93.55      0.18  -3.170E+00   0.11 |
  |    O          49      -88.94      84.69      0.04  -3.207E+00   0.10 |
  |    O          50      -89.50      93.89      0.31  -3.115E+00   0.09 |
  |    O          51      -87.88      84.53      0.06  -3.204E+00   0.07 |
  |    O          52     -164.15     158.86      0.85   1.056E+00   0.84 |
  |    O          53     -164.33     157.08      0.85   1.050E+00   0.85 |
  |    O          54      -87.86      85.03      0.07  -3.200E+00   0.07 |
  |    O          55     -162.62     153.38      0.85   1.037E+00   0.77 |
  |    O          56     -162.51     153.12      0.85   1.035E+00   0.77 |
  |    Zr          1     1623.95    -123.16      0.10  -3.641E+01   0.10 |
  |    Zr          2     1623.62    -123.05      0.08  -3.641E+01   0.11 |
  |    Zr          3     1624.09    -120.18      0.10  -3.843E+01   0.08 |
  |    Zr          4     1624.08    -120.26      0.10  -3.845E+01   0.09 |
  |    Zr          5     1623.54    -123.03      0.08  -3.639E+01   0.09 |
  |    Zr          6     1624.19    -120.17      0.11  -3.827E+01   0.09 |
  |    Zr          7     1623.62    -123.04      0.09  -3.640E+01   0.11 |
  |    Zr          8     1624.09    -120.48      0.09  -3.849E+01   0.11 |
  |    Sn          1     3245.39     -62.22      0.12   1.221E+02   0.15 |
  |    Sn          2     3245.47     -62.01      0.11   1.222E+02   0.15 |
  |    Sn          3     3245.56     -62.08      0.11   1.221E+02   0.14 |
  |    Sn          4     3257.08     -56.23      0.35   1.284E+02   0.21 |
  |    Sn          5     3257.06     -56.22      0.34   1.284E+02   0.21 |
  |    Sn          6     3257.13     -56.03      0.31   1.285E+02   0.20 |
  |    Sn          7     3257.15     -56.34      0.36   1.286E+02   0.21 |
  |    Sn          8     3245.78     -61.97      0.12   1.222E+02   0.14 |
  |    La          1     4702.82     752.49      0.04  -8.446E+01   0.11 |
  |    La          2     4703.21     754.42      0.04  -8.464E+01   0.11 |
  |    La          3     4611.09     520.03      0.06  -7.851E+01   0.09 |
  |    La          4     4700.87     767.25      0.04  -8.358E+01   0.06 |
  |    La          5     4611.16     520.31      0.06  -7.852E+01   0.10 |
  |    La          6     4701.38     770.05      0.04  -8.377E+01   0.06 |
  |    La          7     4702.61     751.82      0.04  -8.446E+01   0.11 |
  |    La          8     4611.03     518.16      0.06  -7.832E+01   0.10 |
  |    La          9     4700.76     767.26      0.04  -8.358E+01   0.06 |
  |    La         10     4702.75     751.76      0.04  -8.446E+01   0.11 |
  |    La         11     4603.97     509.93      0.08  -7.637E+01   0.08 |
  |    La         12     4603.91     509.98      0.08  -7.638E+01   0.08 |
  |    La         13     4604.08     510.67      0.09  -7.639E+01   0.08 |
  |    La         14     4610.85     518.94      0.06  -7.849E+01   0.09 |
  |    La         15     4604.86     514.17      0.08  -7.661E+01   0.08 |
  |    La         16     4701.09     768.97      0.04  -8.365E+01   0.06 |
  ========================================================================
 
 *********************** Forces ***********************
 *                                                    *
 *            Cartesian components (eV/A)             *
 * -------------------------------------------------- *
 *                   x            y            z      *
 *                                                    *
 * O         1     -0.00146     -0.00862     -0.00344 *
 * O         2     -0.00373      0.00008     -0.00041 *
 * O         3      0.00015     -0.00157     -0.00115 *
 * O         4     -0.00354     -0.00168     -0.00483 *
 * O         5     -0.00525     -0.00262     -0.00192 *
 * O         6     -0.00078     -0.00260      0.00250 *
 * O         7      0.00258     -0.00082     -0.00236 *
 * O         8     -0.00248     -0.00279     -0.00457 *
 * O         9      0.00035     -0.00036      0.00608 *
 * O        10      0.00029     -0.00578      0.00231 *
 * O        11      0.00071      0.00555     -0.00847 *
 * O        12      0.00196     -0.00853     -0.00268 *
 * O        13     -0.00104     -0.00308     -0.00035 *
 * O        14      0.00315     -0.00025      0.00122 *
 * O        15     -0.00395     -0.00249      0.00028 *
 * O        16      0.00410     -0.00072      0.00382 *
 * O        17      0.00136      0.00056     -0.00315 *
 * O        18      0.00959     -0.00841      0.00149 *
 * O        19     -0.00776      0.00734     -0.00413 *
 * O        20      0.00252      0.00956      0.00052 *
 * O        21     -0.00796     -0.00135     -0.00448 *
 * O        22     -0.00329     -0.00268      0.00786 *
 * O        23     -0.00313      0.00347     -0.01338 *
 * O        24     -0.01898     -0.00402      0.00968 *
 * O        25      0.00153     -0.00897     -0.00179 *
 * O        26      0.00614      0.00610      0.00871 *
 * O        27     -0.00050     -0.01029     -0.00278 *
 * O        28      0.01284      0.00706      0.00037 *
 * O        29      0.01506      0.02081      0.00112 *
 * O        30     -0.00953      0.01694     -0.00075 *
 * O        31     -0.00219      0.00164     -0.00017 *
 * O        32     -0.00145      0.00446     -0.00366 *
 * O        33     -0.00006     -0.01417      0.00950 *
 * O        34     -0.00388     -0.00824     -0.00126 *
 * O        35      0.00850     -0.00453     -0.00422 *
 * O        36      0.01365      0.00517      0.02350 *
 * O        37      0.00735     -0.00998     -0.00742 *
 * O        38      0.00326     -0.00166     -0.01439 *
 * O        39      0.00048     -0.00500     -0.00145 *
 * O        40      0.00345      0.00633      0.00340 *
 * O        41     -0.00308     -0.00436     -0.00423 *
 * O        42     -0.00475     -0.00770     -0.00263 *
 * O        43     -0.00486     -0.00347     -0.00635 *
 * O        44      0.00502      0.00695      0.00404 *
 * O        45     -0.00461      0.01133      0.01556 *
 * O        46      0.00456     -0.00063     -0.00038 *
 * O        47     -0.00335     -0.00182      0.00020 *
 * O        48     -0.00113      0.00528      0.00251 *
 * O        49      0.01914     -0.00438     -0.00747 *
 * O        50     -0.00144     -0.00294     -0.00843 *
 * O        51     -0.01017      0.00546     -0.01287 *
 * O        52     -0.01162      0.01136      0.00737 *
 * O        53      0.00292     -0.00496      0.01374 *
 * O        54     -0.01303     -0.01038      0.00654 *
 * O        55      0.00185     -0.00985     -0.00517 *
 * O        56     -0.00181      0.00689      0.00147 *
 * Zr        1     -0.00925      0.00939      0.00874 *
 * Zr        2      0.00862      0.00309     -0.01077 *
 * Zr        3      0.00061      0.00549      0.00788 *
 * Zr        4      0.00955      0.00636      0.00963 *
 * Zr        5      0.00554     -0.00739     -0.00271 *
 * Zr        6      0.01357      0.01058      0.00232 *
 * Zr        7      0.00141      0.00488     -0.00626 *
 * Zr        8     -0.00107      0.01023      0.00762 *
 * Sn        1     -0.00278      0.00620     -0.00456 *
 * Sn        2     -0.00028     -0.00610     -0.00123 *
 * Sn        3     -0.00564      0.00376     -0.00319 *
 * Sn        4      0.00367     -0.00452      0.00043 *
 * Sn        5     -0.00986     -0.00349      0.00129 *
 * Sn        6      0.01036      0.00168     -0.00285 *
 * Sn        7     -0.00164      0.00626     -0.00468 *
 * Sn        8      0.00169     -0.00775      0.00418 *
 * La        1      0.00530      0.01271     -0.02039 *
 * La        2      0.02285     -0.00804      0.01097 *
 * La        3     -0.00538     -0.00674      0.00108 *
 * La        4      0.01032     -0.00647      0.00812 *
 * La        5     -0.00299      0.00105     -0.00451 *
 * La        6      0.01680      0.01374     -0.00161 *
 * La        7     -0.01977     -0.02082     -0.00467 *
 * La        8     -0.00746     -0.00626     -0.00464 *
 * La        9     -0.01448     -0.00440     -0.00957 *
 * La       10     -0.00285      0.01467      0.01431 *
 * La       11     -0.00565      0.00167      0.00173 *
 * La       12     -0.00732     -0.00860     -0.00531 *
 * La       13      0.00143     -0.00931      0.00463 *
 * La       14     -0.00287     -0.00071     -0.00154 *
 * La       15      0.01090      0.01179      0.00271 *
 * La       16     -0.01500      0.00643      0.00983 *
 *                                                    *
 ******************************************************
 
 ***************** Stress Tensor *****************
 *                                               *
 *          Cartesian components (GPa)           *
 * --------------------------------------------- *
 *             x             y             z     *
 *                                               *
 *  x      0.045617      0.001173      0.001032  *
 *  y      0.001173     -0.053822      0.000956  *
 *  z      0.001032      0.000956      0.044857  *
 *                                               *
 *  Pressure:   -0.0122                          *
 *                                               *
 *************************************************
 
 Pseudo atomic calculation performed for O 2s2 2p4
 
 Converged in 39 iterations to a total energy of -432.6554 eV
 
 
 Pseudo atomic calculation performed for Zr 4s2 4p6 4d2 5s2
 
 Converged in 38 iterations to a total energy of -1285.4931 eV
 
 
 Pseudo atomic calculation performed for Sn 4d10 5s2 5p2
 
 Converged in 48 iterations to a total energy of -2044.5414 eV
 
 
 Pseudo atomic calculation performed for La 5s2 5p6 5d1 6s2
 
 Converged in 34 iterations to a total energy of -968.0372 eV
 
Charge spilling parameter for spin component 1 = 0.24%
 
     Atomic Populations (Mulliken)
     -----------------------------
Species   Ion     s      p      d      f     Total  Charge (e)
==============================================================
  O        1     1.87   5.00   0.00   0.00   6.87    -0.87
  O        2     1.87   5.00   0.00   0.00   6.87    -0.87
  O        3     1.87   5.00   0.00   0.00   6.87    -0.87
  O        4     1.87   5.00   0.00   0.00   6.87    -0.87
  O        5     1.87   5.00   0.00   0.00   6.87    -0.87
  O        6     1.87   5.00   0.00   0.00   6.87    -0.87
  O        7     1.87   5.00   0.00   0.00   6.87    -0.87
  O        8     1.87   5.00   0.00   0.00   6.87    -0.87
  O        9     1.86   4.95   0.00   0.00   6.80    -0.80
  O       10     1.88   5.03   0.00   0.00   6.91    -0.91
  O       11     1.87   4.99   0.00   0.00   6.86    -0.86
  O       12     1.87   4.99   0.00   0.00   6.86    -0.86
  O       13     1.88   5.02   0.00   0.00   6.91    -0.91
  O       14     1.86   4.94   0.00   0.00   6.80    -0.80
  O       15     1.88   5.02   0.00   0.00   6.91    -0.91
  O       16     1.88   5.02   0.00   0.00   6.91    -0.91
  O       17     1.88   5.03   0.00   0.00   6.91    -0.91
  O       18     1.87   4.99   0.00   0.00   6.86    -0.86
  O       19     1.87   4.99   0.00   0.00   6.86    -0.86
  O       20     1.86   4.95   0.00   0.00   6.80    -0.80
  O       21     1.87   4.99   0.00   0.00   6.86    -0.86
  O       22     1.87   4.99   0.00   0.00   6.86    -0.86
  O       23     1.87   4.99   0.00   0.00   6.86    -0.86
  O       24     1.87   4.99   0.00   0.00   6.86    -0.86
  O       25     1.88   5.02   0.00   0.00   6.91    -0.91
  O       26     1.87   4.99   0.00   0.00   6.86    -0.86
  O       27     1.87   4.99   0.00   0.00   6.86    -0.86
  O       28     1.86   4.95   0.00   0.00   6.80    -0.80
  O       29     1.87   4.99   0.00   0.00   6.86    -0.86
  O       30     1.87   4.99   0.00   0.00   6.86    -0.86
  O       31     1.88   5.02   0.00   0.00   6.91    -0.91
  O       32     1.88   5.02   0.00   0.00   6.91    -0.91
  O       33     1.87   4.99   0.00   0.00   6.86    -0.86
  O       34     1.88   5.02   0.00   0.00   6.91    -0.91
  O       35     1.87   4.99   0.00   0.00   6.86    -0.86
  O       36     1.87   4.99   0.00   0.00   6.86    -0.86
  O       37     1.87   4.99   0.00   0.00   6.86    -0.86
  O       38     1.86   4.95   0.00   0.00   6.80    -0.80
  O       39     1.88   5.02   0.00   0.00   6.91    -0.91
  O       40     1.86   4.94   0.00   0.00   6.80    -0.80
  O       41     1.88   5.03   0.00   0.00   6.91    -0.91
  O       42     1.87   4.99   0.00   0.00   6.86    -0.86
  O       43     1.87   4.99   0.00   0.00   6.86    -0.86
  O       44     1.86   4.95   0.00   0.00   6.80    -0.80
  O       45     1.87   4.99   0.00   0.00   6.86    -0.86
  O       46     1.86   4.95   0.00   0.00   6.80    -0.80
  O       47     1.88   5.03   0.00   0.00   6.91    -0.91
  O       48     1.87   4.99   0.00   0.00   6.86    -0.86
  O       49     1.87   4.99   0.00   0.00   6.86    -0.86
  O       50     1.87   4.99   0.00   0.00   6.86    -0.86
  O       51     1.87   4.99   0.00   0.00   6.86    -0.86
  O       52     1.86   4.95   0.00   0.00   6.80    -0.80
  O       53     1.86   4.95   0.00   0.00   6.80    -0.80
  O       54     1.87   4.99   0.00   0.00   6.86    -0.86
  O       55     1.86   4.95   0.00   0.00   6.80    -0.80
  O       56     1.86   4.95   0.00   0.00   6.80    -0.80
  Zr       1     2.37   6.49   1.92   0.00  10.78     1.22
  Zr       2     2.37   6.49   1.92   0.00  10.78     1.22
  Zr       3     2.37   6.47   1.93   0.00  10.76     1.24
  Zr       4     2.37   6.47   1.93   0.00  10.76     1.24
  Zr       5     2.37   6.49   1.92   0.00  10.78     1.22
  Zr       6     2.37   6.47   1.93   0.00  10.76     1.24
  Zr       7     2.37   6.49   1.92   0.00  10.78     1.22
  Zr       8     2.37   6.47   1.93   0.00  10.76     1.24
  Sn       1     1.05   1.31  10.00   0.00  12.36     1.64
  Sn       2     1.05   1.31  10.00   0.00  12.36     1.64
  Sn       3     1.05   1.31  10.00   0.00  12.36     1.64
  Sn       4     1.05   1.31  10.00   0.00  12.36     1.64
  Sn       5     1.05   1.31  10.00   0.00  12.36     1.64
  Sn       6     1.05   1.31  10.00   0.00  12.36     1.64
  Sn       7     1.05   1.31  10.00   0.00  12.36     1.64
  Sn       8     1.05   1.31  10.00   0.00  12.36     1.64
  La       1     2.05   6.16   1.19   0.00   9.41     1.59
  La       2     2.05   6.16   1.19   0.00   9.41     1.59
  La       3     2.09   6.19   1.19   0.00   9.47     1.53
  La       4     2.03   6.16   1.19   0.00   9.38     1.62
  La       5     2.09   6.19   1.19   0.00   9.47     1.53
  La       6     2.03   6.16   1.19   0.00   9.38     1.62
  La       7     2.05   6.16   1.19   0.00   9.41     1.59
  La       8     2.09   6.19   1.19   0.00   9.47     1.53
  La       9     2.03   6.16   1.19   0.00   9.38     1.62
  La      10     2.05   6.16   1.19   0.00   9.41     1.59
  La      11     2.09   6.19   1.19   0.00   9.47     1.53
  La      12     2.09   6.19   1.19   0.00   9.47     1.53
  La      13     2.09   6.19   1.19   0.00   9.46     1.54
  La      14     2.09   6.19   1.19   0.00   9.47     1.53
  La      15     2.09   6.19   1.19   0.00   9.46     1.54
  La      16     2.03   6.16   1.19   0.00   9.38     1.62
==============================================================
 
            Bond              Population      Length (A)
============================================================
         O 27 -- Sn 7              0.35        2.09760
         O 33 -- Sn 4              0.35        2.09826
         O 30 -- Sn 5              0.35        2.09827
         O 29 -- Sn 6              0.35        2.09884
         O 43 -- Sn 6              0.35        2.10118
         O 18 -- Sn 5              0.35        2.10210
         O 11 -- Sn 4              0.35        2.10221
         O 45 -- Sn 7              0.35        2.10296
         O 23 -- Sn 2              0.35        2.10469
         O 24 -- Sn 3              0.35        2.10513
         O 49 -- Sn 1              0.35        2.10516
         O 36 -- Sn 8              0.34        2.10563
         O 47 -- Sn 1              0.34        2.10613
         O 41 -- Sn 8              0.34        2.10623
         O 10 -- Sn 2              0.34        2.10655
         O 22 -- Sn 6              0.34        2.10657
         O 17 -- Sn 3              0.34        2.10658
         O 50 -- Sn 5              0.34        2.10673
         O 35 -- Sn 7              0.34        2.10675
         O 21 -- Sn 4              0.34        2.10680
         O 16 -- Sn 8              0.34        2.10733
         O 39 -- Sn 1              0.34        2.10817
         O 39 -- Sn 3              0.34        2.10822
         O 52 -- Zr 8              0.41        2.10843
         O 16 -- Sn 2              0.34        2.10870
         O 42 -- Sn 5              0.34        2.10894
         O 12 -- Sn 6              0.34        2.10901
         O 48 -- Sn 4              0.34        2.10934
         O 19 -- Sn 7              0.34        2.10941
         O 26 -- Sn 8              0.34        2.10972
         O 51 -- Sn 2              0.34        2.10991
         O 54 -- Sn 3              0.34        2.10995
         O 37 -- Sn 1              0.34        2.11001
         O 38 -- Zr 2              0.42        2.11016
         O 10 -- Sn 3              0.33        2.11075
         O 17 -- Sn 8              0.33        2.11092
         O 41 -- Sn 1              0.33        2.11113
         O 28 -- Zr 7              0.42        2.11115
         O 47 -- Sn 2              0.33        2.11118
         O 53 -- Zr 5              0.42        2.11150
         O 29 -- Zr 4              0.45        2.11161
         O 28 -- Zr 4              0.41        2.11307
         O 52 -- Zr 1              0.41        2.11323
         O 53 -- Zr 3              0.41        2.11378
         O 15 -- Sn 4              0.33        2.11430
         O 13 -- Sn 6              0.33        2.11437
         O 15 -- Sn 7              0.33        2.11462
         O 13 -- Sn 5              0.33        2.11469
         O 30 -- Zr 8              0.44        2.11597
         O 36 -- Zr 3              0.45        2.11621
         O 38 -- Zr 6              0.41        2.11645
         O 33 -- Zr 3              0.44        2.11655
         O 20 -- Zr 6              0.43        2.11745
         O 9  -- Zr 6              0.43        2.11800
         O 55 -- Zr 5              0.42        2.11818
         O 35 -- Zr 2              0.44        2.11839
         O 22 -- Zr 7              0.44        2.11845
         O 19 -- Zr 7              0.45        2.11863
         O 50 -- Zr 1              0.44        2.11886
         O 56 -- Zr 1              0.42        2.11903
         O 44 -- Zr 3              0.43        2.11930
         O 27 -- Zr 6              0.44        2.11944
         O 34 -- Sn 6              0.33        2.11977
         O 56 -- Zr 7              0.42        2.11983
         O 45 -- Zr 1              0.44        2.11988
         O 46 -- Zr 4              0.43        2.11990
         O 48 -- Zr 1              0.45        2.11992
         O 31 -- Sn 7              0.33        2.11995
         O 21 -- Zr 5              0.44        2.11995
         O 32 -- Sn 4              0.33        2.11999
         O 42 -- Zr 2              0.45        2.12001
         O 55 -- Zr 2              0.42        2.12002
         O 25 -- Sn 5              0.33        2.12011
         O 12 -- Zr 5              0.45        2.12013
         O 46 -- Zr 3              0.43        2.12018
         O 40 -- Zr 6              0.43        2.12051
         O 49 -- Zr 4              0.45        2.12062
         O 44 -- Zr 8              0.43        2.12070
         O 24 -- Zr 8              0.45        2.12103
         O 32 -- Sn 8              0.33        2.12162
         O 34 -- Sn 1              0.33        2.12188
         O 14 -- Zr 8              0.43        2.12193
         O 31 -- Sn 2              0.33        2.12194
         O 18 -- Zr 5              0.44        2.12205
         O 25 -- Sn 3              0.33        2.12206
         O 14 -- Zr 4              0.43        2.12228
         O 11 -- Zr 7              0.44        2.12230
         O 23 -- Zr 6              0.44        2.12322
         O 43 -- Zr 2              0.44        2.12344
         O 9  -- Zr 8              0.42        2.12410
         O 20 -- Zr 4              0.43        2.12463
         O 40 -- Zr 3              0.43        2.12638
         O 54 -- Zr 1              0.45        2.12698
         O 26 -- Zr 5              0.45        2.12735
         O 51 -- Zr 2              0.45        2.12743
         O 37 -- Zr 7              0.45        2.12845
         O 2  -- La 2              0.18        2.35711
         O 7  -- La 16             0.17        2.35740
         O 8  -- La 4              0.17        2.35744
         O 6  -- La 9              0.17        2.35746
         O 5  -- La 6              0.17        2.35759
         O 2  -- La 7              0.18        2.35775
         O 1  -- La 10             0.18        2.35780
         O 1  -- La 1              0.18        2.35795
         O 4  -- La 6              0.18        2.35830
         O 6  -- La 1              0.18        2.35882
         O 8  -- La 10             0.18        2.35884
         O 4  -- La 4              0.18        2.35891
         O 7  -- La 7              0.18        2.35893
         O 4  -- La 9              0.18        2.35897
         O 4  -- La 16             0.18        2.35897
         O 5  -- La 2              0.18        2.35904
         O 1  -- La 15             0.17        2.36084
         O 3  -- La 8              0.16        2.36148
         O 1  -- La 11             0.17        2.36151
         O 2  -- La 12             0.17        2.36156
         O 3  -- La 5              0.16        2.36160
         O 3  -- La 14             0.16        2.36162
         O 2  -- La 13             0.17        2.36164
         O 3  -- La 3              0.16        2.36164
         O 6  -- La 14             0.18        2.36205
         O 7  -- La 3              0.18        2.36209
         O 8  -- La 5              0.18        2.36211
         O 5  -- La 8              0.18        2.36268
         O 6  -- La 12             0.17        2.36270
         O 8  -- La 13             0.17        2.36272
         O 7  -- La 11             0.17        2.36274
         O 5  -- La 15             0.17        2.36292
         O 38 -- La 4              0.12        2.65890
         O 28 -- La 16             0.12        2.65936
         O 53 -- La 9              0.12        2.65947
         O 52 -- La 6              0.12        2.65947
         O 56 -- La 2              0.13        2.66106
         O 55 -- La 1              0.13        2.66134
         O 55 -- La 10             0.13        2.66153
         O 56 -- La 7              0.13        2.66210
         O 20 -- La 12             0.13        2.66408
         O 9  -- La 11             0.13        2.66410
         O 46 -- La 15             0.13        2.66440
         O 44 -- La 13             0.13        2.66472
         O 38 -- La 10             0.13        2.66739
         O 53 -- La 1              0.13        2.66785
         O 52 -- La 2              0.13        2.66795
         O 40 -- La 9              0.13        2.66806
         O 28 -- La 7              0.13        2.66812
         O 40 -- La 4              0.13        2.66813
         O 25 -- La 15             0.24        2.66818
         O 31 -- La 13             0.24        2.66844
         O 14 -- La 6              0.13        2.66847
         O 14 -- La 16             0.13        2.66869
         O 17 -- La 15             0.23        2.66900
         O 10 -- La 13             0.23        2.66932
         O 13 -- La 15             0.23        2.66933
         O 34 -- La 11             0.24        2.66934
         O 32 -- La 12             0.24        2.66941
         O 47 -- La 11             0.23        2.66949
         O 15 -- La 13             0.23        2.66964
         O 15 -- La 12             0.23        2.66980
         O 41 -- La 12             0.23        2.67011
         O 31 -- La 5              0.25        2.67021
         O 13 -- La 11             0.23        2.67029
         O 25 -- La 8              0.25        2.67055
         O 34 -- La 3              0.25        2.67072
         O 32 -- La 14             0.25        2.67080
         O 39 -- La 8              0.23        2.67180
         O 16 -- La 5              0.23        2.67187
         O 16 -- La 14             0.23        2.67188
         O 39 -- La 3              0.23        2.67192
         O 27 -- La 12             0.18        2.67239
         O 33 -- La 13             0.18        2.67296
         O 29 -- La 15             0.18        2.67302
         O 30 -- La 11             0.18        2.67313
         O 43 -- La 3              0.19        2.67554
         O 18 -- La 8              0.19        2.67564
         O 45 -- La 5              0.19        2.67571
         O 51 -- La 14             0.19        2.67582
         O 11 -- La 14             0.19        2.67584
         O 37 -- La 8              0.20        2.67611
         O 26 -- La 5              0.20        2.67625
         O 54 -- La 3              0.19        2.67630
         O 23 -- La 11             0.17        2.67723
         O 12 -- La 6              0.18        2.67753
         O 48 -- La 6              0.17        2.67763
         O 42 -- La 16             0.18        2.67784
         O 24 -- La 13             0.17        2.67784
         O 36 -- La 15             0.17        2.67786
         O 35 -- La 3              0.19        2.67791
         O 19 -- La 16             0.17        2.67801
         O 49 -- La 12             0.17        2.67803
         O 21 -- La 8              0.19        2.67814
         O 19 -- La 9              0.18        2.67823
         O 42 -- La 4              0.17        2.67824
         O 50 -- La 5              0.19        2.67831
         O 22 -- La 14             0.19        2.67839
         O 48 -- La 4              0.18        2.67852
         O 12 -- La 9              0.17        2.67873
         O 41 -- La 2              0.23        2.67913
         O 47 -- La 1              0.23        2.67951
         O 10 -- La 7              0.23        2.67957
         O 17 -- La 10             0.23        2.68005
         O 9  -- La 10             0.13        2.68054
         O 20 -- La 7              0.13        2.68054
         O 44 -- La 2              0.13        2.68088
         O 46 -- La 1              0.13        2.68117
         O 21 -- La 6              0.17        2.68284
         O 37 -- La 2              0.19        2.68297
         O 35 -- La 16             0.17        2.68313
         O 51 -- La 1              0.19        2.68328
         O 50 -- La 4              0.17        2.68407
         O 54 -- La 7              0.18        2.68410
         O 26 -- La 10             0.19        2.68410
         O 22 -- La 9              0.17        2.68413
         O 11 -- La 8              0.18        2.68655
         O 43 -- La 14             0.18        2.68655
         O 27 -- La 9              0.16        2.68655
         O 45 -- La 3              0.18        2.68670
         O 18 -- La 5              0.18        2.68671
         O 30 -- La 16             0.16        2.68708
         O 29 -- La 6              0.16        2.68719
         O 33 -- La 4              0.16        2.68722
         O 23 -- La 7              0.19        2.68754
         O 36 -- La 2              0.19        2.68817
         O 49 -- La 1              0.19        2.68817
         O 24 -- La 10             0.19        2.68823
         O 12 -- O 29             -0.06        2.79470
         O 30 -- O 42             -0.06        2.79524
         O 19 -- O 27             -0.06        2.79559
         O 33 -- O 48             -0.06        2.79581
         O 17 -- O 36             -0.06        2.79697
         O 16 -- O 26             -0.06        2.79706
         O 16 -- O 51             -0.06        2.79711
         O 37 -- O 39             -0.06        2.79716
         O 39 -- O 54             -0.06        2.79727
         O 10 -- O 24             -0.06        2.79753
         O 23 -- O 47             -0.06        2.79771
         O 13 -- O 29             -0.06        2.79787
         O 41 -- O 49             -0.06        2.79798
         O 15 -- O 33             -0.06        2.79833
         O 32 -- O 41             -0.05        2.79839
         O 34 -- O 47             -0.05        2.79843
         O 17 -- O 25             -0.05        2.79846
         O 10 -- O 31             -0.05        2.79859
         O 15 -- O 27             -0.06        2.79865
         O 13 -- O 30             -0.06        2.79888
         O 36 -- O 41             -0.06        2.80215
         O 47 -- O 49             -0.06        2.80268
         O 10 -- O 23             -0.06        2.80291
         O 12 -- O 22             -0.06        2.80295
         O 42 -- O 50             -0.06        2.80307
         O 21 -- O 48             -0.06        2.80311
         O 19 -- O 35             -0.06        2.80312
         O 17 -- O 24             -0.06        2.80327
         O 17 -- O 26             -0.06        2.80462
         O 37 -- O 41             -0.06        2.80471
         O 10 -- O 54             -0.06        2.80476
         O 47 -- O 51             -0.06        2.80487
         O 34 -- O 43             -0.06        2.80592
         O 18 -- O 25             -0.06        2.80595
         O 31 -- O 45             -0.06        2.80597
         O 11 -- O 32             -0.06        2.80617
         O 35 -- O 45             -0.06        2.80641
         O 22 -- O 43             -0.06        2.80643
         O 11 -- O 21             -0.06        2.80651
         O 18 -- O 50             -0.06        2.80657
         O 16 -- O 31             -0.05        2.80749
         O 25 -- O 39             -0.05        2.80751
         O 16 -- O 32             -0.05        2.80752
         O 34 -- O 39             -0.05        2.80764
         O 40 -- O 53             -0.04        2.80823
         O 14 -- O 28             -0.04        2.80878
         O 14 -- O 52             -0.03        2.80881
         O 13 -- O 25             -0.05        2.80949
         O 13 -- O 34             -0.05        2.80950
         O 15 -- O 32             -0.05        2.80959
         O 15 -- O 31             -0.05        2.80965
         O 38 -- O 40             -0.04        2.80968
         O 52 -- O 56             -0.03        2.81118
         O 53 -- O 55             -0.03        2.81159
         O 38 -- O 55             -0.03        2.81168
         O 28 -- O 56             -0.03        2.81201
         O 48 -- O 52             -0.03        2.81475
         O 19 -- O 28             -0.03        2.81511
         O 38 -- O 42             -0.03        2.81541
         O 12 -- O 53             -0.03        2.81577
         O 9  -- O 30             -0.03        2.81583
         O 29 -- O 46             -0.03        2.81657
         O 33 -- O 44             -0.03        2.81668
         O 20 -- O 27             -0.03        2.81748
         O 20 -- O 28             -0.03        2.82067
         O 44 -- O 52             -0.03        2.82132
         O 46 -- O 53             -0.03        2.82154
         O 9  -- O 38             -0.03        2.82232
         O 20 -- O 49             -0.03        2.82584
         O 33 -- O 40             -0.03        2.82610
         O 24 -- O 44             -0.03        2.82654
         O 36 -- O 46             -0.03        2.82664
         O 14 -- O 29             -0.03        2.82681
         O 14 -- O 30             -0.03        2.82686
         O 54 -- O 56             -0.03        2.82721
         O 37 -- O 56             -0.03        2.82721
         O 26 -- O 55             -0.03        2.82722
         O 51 -- O 55             -0.03        2.82730
         O 9  -- O 23             -0.03        2.82736
         O 27 -- O 40             -0.03        2.82755
         O 48 -- O 50             -0.03        2.82817
         O 12 -- O 21             -0.03        2.82824
         O 19 -- O 22             -0.03        2.82827
         O 35 -- O 42             -0.03        2.82841
         O 45 -- O 50             -0.03        2.82927
         O 35 -- O 43             -0.03        2.82944
         O 18 -- O 21             -0.03        2.82944
         O 11 -- O 22             -0.03        2.82948
         O 9  -- O 24             -0.03        2.83279
         O 46 -- O 49             -0.03        2.83358
         O 36 -- O 44             -0.03        2.83367
         O 20 -- O 23             -0.03        2.83449
         O 45 -- O 54             -0.03        2.83578
         O 11 -- O 37             -0.03        2.83591
         O 43 -- O 51             -0.03        2.83591
         O 18 -- O 26             -0.03        2.83607
============================================================
 

Writing analysis data to 055.castep_bin

Writing model to 055.check
 
 A BibTeX formatted list of references used in this run has been written to 
 055.bib
 
Initialisation time =     54.06 s
Calculation time    =  33759.61 s
Finalisation time   =     29.51 s
Total time          =  33843.19 s
Peak Memory Use     = 2839444 kB
  
Overall parallel efficiency rating: Good (77%)                                  
  
Data was distributed by:-
G-vector (4-way); efficiency rating: Good (78%)                                 
k-point (14-way); efficiency rating: Excellent (98%)                            
