 +-------------------------------------------------+
 |                                                 |
 |      CCC   AA    SSS  TTTTT  EEEEE  PPPP        |
 |     C     A  A  S       T    E      P   P       |
 |     C     AAAA   SS     T    EEE    PPPP        |
 |     C     A  A     S    T    E      P           |
 |      CCC  A  A  SSS     T    EEEEE  P           |
 |                                                 |
 +-------------------------------------------------+
 |                                                 |
 | Welcome to Academic Release CASTEP version 16.11|          
 | Ab Initio Total Energy Program                  |
 |                                                 |
 | Authors:                                        |
 | M. Segall, M. Probert, C. Pickard, P. Hasnip,   |
 | S. Clark, K. Refson, J. R. Yates, M. Payne      |
 |                                                 |
 | Contributors:                                   |
 | P. Lindan, P. Haynes, J. White, V. Milman,      |
 | N. Govind, M. Gibson, P. Tulip, V. Cocula,      |
 | B. Montanari, D. Quigley, M. Glover,            |
 | L. Bernasconi, A. Perlov, M. Plummer,           |
 | E. McNellis, J. Meyer, J. Gale, D. Jochym       |
 | J. Aarons, B. Walker, R. Gillen, D. Jones       |
 | T. Green, I. J. Bush, C. J. Armstrong,          |
 | E. J. Higgins, E. L. Brown, M. S. McFly         |
 |                                                 |
 | Copyright (c) 2000 - 2015                       |
 |                                                 |
 |     Distributed under the terms of an           |
 |     Agreement between the United Kingdom        |
 |     Car-Parrinello (UKCP) Consortium,           |
 |     Daresbury Laboratory and Accelrys, Inc.     |
 |                                                 |
 | Please cite                                     |
 |                                                 |
 |     "First principles methods using CASTEP"     |
 |                                                 |
 |         Zeitschrift fuer Kristallographie       |
 |           220(5-6) pp. 567-570 (2005)           |
 |                                                 |
 | S. J. Clark, M. D. Segall, C. J. Pickard,       |
 | P. J. Hasnip, M. J. Probert, K. Refson,         |
 | M. C. Payne                                     |
 |                                                 |
 |       in all publications arising from          |
 |              your use of CASTEP                 |
 |                                                 |
 +-------------------------------------------------+
 
 
 Compiled for linux_x86_64_ifort16 on Sat, 23 Jul 2016 23:44:54 +0100
 from code version 
 203e84763863+ Castep161_branch Fri, 04 Mar 2016 19:21:07 +0000
 Compiler: Intel Fortran 16.0.3.210; Optimisation: fast
 MATHLIBS: Intel MKL(11.3.3) (LAPACK version 3.6.0)
 FFT Lib : mkl
 Fundamental constants values: CODATA 2010
 
 Run started: Sun, 29 Apr 2018 20:33:48 +0100
 +-------------------------------------------------+
 |                                                 |
 |           N   N    M   M    RRRR                |
 |           NN  N    MM MM    R   R               |
 |           N N N    M M M    RRRR                |
 |           N  NN    M   M    R  R                |
 |           N   N    M   M    R   R               |
 |                                                 |
 +-------------------------------------------------+
 |                                                 |
 | Welcome to Materials Studio CASTEP-NMR          |
 |                                                 |
 | Authors:                                        |
 | J.R. Yates, C.J. Pickard, F. Mauri              |
 |                                                 |
 | Contributors:                                   |
 | T.F.G. Green, S.A. Joyce                        |
 |                                                 |
 | Copyright (c) 2004 - 2015                       |
 |                                                 |
 | Please cite the appropriate publications in all |
 | work arising from your use of CASTEP NMR.       |
 |                                                 |
 | For NMR Shielding Tensors cite:                 |
 |    "All-electron magnetic response with         |
 |    pseudopotentials: NMR chemical shifts",      |
 |    C. J. Pickard, F. Mauri;                     |
 |    Physical Review B63 245101 (2001), and       |
 |                                                 |
 |    "Calculation of NMR Chemical Shifts          |
 |    for extended systems using                   |
 |    Ultrasoft Pseudopotentials",                 |
 |    J. R. Yates, C. J. Pickard and F. Mauri      |
 |    Physical Review B76 024401 (2007)            |
 |                                                 |
 | For Electric Field Gradients cite:              |
 |   "Accurate First Principles Prediction of 17O  |
 |    NMR Parameters in SiO2: Assignment of the    |
 |    Zeolite Ferrierite Spectrum"                 |
 |    M. Profeta, F. Mauri and C. J. Pickard       |
 |    J. Amer. Chem. Soc. 125 541 (2003)           |
 |                                                 |
 | For Spin-Spin (J) Couplings cite:               |
 |   "A first principles theory of NMR J-coupling  |
 |   in solid-state systems"                       |
 |   S.A. Joyce, J.R. Yates, C.J. Pickard, F. Mauri|
 |   J. Chem. Phys. 127 204107 (2007)              |
 |                                                 |
 |   "Relativistic NMR J-coupling with ultrasoft   |
 |   pseudopotentials and the zeroth-order regular |
 |   approximation"                                |
 |   T.F.G. Green and J.R. Yates                   |
 |   J. Chem. Phys. 140 234106 (2014)              |
 |                                                 |
 +-------------------------------------------------+
 
 
 Atomic calculation performed for O: 1s2 2s2 2p4
 
 Converged in 44 iterations to an ae energy of -2040.855 eV
 
 
 Atomic calculation performed for O: 1s2 2s2 2p4
 
 Exceeded max iterations: converged to 0.000000062 eV
 
   ============================================================                
   | Pseudopotential Report - Date of generation 29-04-2018   |                
   ------------------------------------------------------------                
   | Element: O Ionic charge:  6.00 Level of theory: PBE      |                
   | Atomic Solver: ZORA (scalar)                             |                
   |                                                          |                
   |               Reference Electronic Structure             |                
   |         Orbital         Occupation         Energy        |                
   |            2s              2.000           -0.881        |                
   |            2p              4.000           -0.332        |                
   |                                                          |                
   |                 Pseudopotential Definition               |                
   |        Beta     l      e      Rc     scheme   norm       |                
   |          1      0   -0.881   1.100     qc      0         |                
   |          2      0    0.250   1.100     qc      0         |                
   |          3      1   -0.332   1.100     qc      0         |                
   |          4      1    0.250   1.100     qc      0         |                
   |         loc     2    0.000   1.100     pn      0         |                
   |                                                          |                
   | Augmentation charge Rinner = 0.769                       |                
   | Partial core correction Rc = 0.769                       |                
   ------------------------------------------------------------                
   | "2|1.1|15|18|20|20:21(qc=7)"                             |                
   ------------------------------------------------------------                
   |      Author: Chris J. Pickard, Cambridge University      |                
   ============================================================                
 
 Atomic calculation performed for Zr: 1s2 2s2 2p6 3s2 3p6 3d10 4s2 4p6 4d2 5s2
 
 Converged in 53 iterations to an ae energy of -97719.888 eV
 
 
 Atomic calculation performed for Zr: 1s2 2s2 2p6 3s2 3p6 3d10 4s2 4p6 4d2 5s2
 
 Exceeded max iterations: converged to 0.000000970 eV
 
 Warning: ion_atom_descreen_psp: negative charge density encountered
   ============================================================                
   | Pseudopotential Report - Date of generation 29-04-2018   |                
   ------------------------------------------------------------                
   | Element: Zr Ionic charge: 12.00 Level of theory: PBE     |                
   | Atomic Solver: ZORA (scalar)                             |                
   |                                                          |                
   |               Reference Electronic Structure             |                
   |         Orbital         Occupation         Energy        |                
   |            4s              2.000           -2.003        |                
   |            4p              6.000           -1.193        |                
   |            5s              2.000           -0.163        |                
   |            4d              2.000           -0.132        |                
   |                                                          |                
   |                 Pseudopotential Definition               |                
   |        Beta     l      e      Rc     scheme   norm       |                
   |          1      0   -2.003   2.105     qc      0         |                
   |          2      0   -0.163   2.105     qc      0         |                
   |          3      0    0.250   2.105     qc      0         |                
   |          4      1   -1.193   2.105     qc      0         |                
   |          5      1    0.250   2.105     qc      0         |                
   |          6      2   -0.132   2.105     qc      0         |                
   |          7      2    0.250   2.105     qc      0         |                
   |         loc     3    0.000   2.105     pn      0         |                
   |                                                          |                
   | Augmentation charge Rinner = 1.471                       |                
   | Partial core correction Rc = 1.471                       |                
   ------------------------------------------------------------                
   | "3|2.1|7|8|9|40U:50:41:42"                               |                
   ------------------------------------------------------------                
   |      Author: Chris J. Pickard, Cambridge University      |                
   ============================================================                
 
 Atomic calculation performed for Sn:
 1s2 2s2 2p6 3s2 3p6 3d10 4s2 4p6 4d10 5s2 5p2
 
 Converged in 58 iterations to an ae energy of -167539.320 eV
 
 
 Atomic calculation performed for Sn:
 1s2 2s2 2p6 3s2 3p6 3d10 4s2 4p6 4d10 5s2 5p2
 
 Exceeded max iterations: converged to 0.000001154 eV
 
   ============================================================                
   | Pseudopotential Report - Date of generation 29-04-2018   |                
   ------------------------------------------------------------                
   | Element: Sn Ionic charge: 14.00 Level of theory: PBE     |                
   | Atomic Solver: ZORA (scalar)                             |                
   |                                                          |                
   |               Reference Electronic Structure             |                
   |         Orbital         Occupation         Energy        |                
   |            4d             10.000           -0.950        |                
   |            5s              2.000           -0.388        |                
   |            5p              2.000           -0.136        |                
   |                                                          |                
   |                 Pseudopotential Definition               |                
   |        Beta     l      e      Rc     scheme   norm       |                
   |          1      0   -0.388   2.199     qc      0         |                
   |          2      0    0.250   2.199     qc      0         |                
   |          3      1   -0.136   2.199     qc      0         |                
   |          4      1    0.250   2.199     qc      0         |                
   |          5      2   -0.950   2.199     qc      0         |                
   |          6      2    0.250   2.199     qc      0         |                
   |         loc     3    0.000   2.199     pn      0         |                
   |                                                          |                
   | Augmentation charge Rinner = 1.537                       |                
   | Partial core correction Rc = 1.537                       |                
   ------------------------------------------------------------                
   | "3|2.2|7|8|9|50:51:42"                                   |                
   ------------------------------------------------------------                
   |      Author: Chris J. Pickard, Cambridge University      |                
   ============================================================                
 
 Atomic calculation performed for La:
 1s2 2s2 2p6 3s2 3p6 3d10 4s2 4p6 4d10 5s2 5p6 5d1 6s2
 
 Converged in 56 iterations to an ae energy of -230121.495 eV
 
 
 Atomic calculation performed for La:
 1s2 2s2 2p6 3s2 3p6 3d10 4s2 4p6 4d10 5s2 5p6 5d1 6s2
 
 Exceeded max iterations: converged to 0.000000907 eV
 
 Warning: ion_atom_descreen_psp: negative charge density encountered
   ============================================================                
   | Pseudopotential Report - Date of generation 29-04-2018   |                
   ------------------------------------------------------------                
   | Element: La Ionic charge: 11.00 Level of theory: PBE     |                
   | Atomic Solver: ZORA (scalar)                             |                
   |                                                          |                
   |               Reference Electronic Structure             |                
   |         Orbital         Occupation         Energy        |                
   |            5s              2.000           -1.430        |                
   |            5p              6.000           -0.823        |                
   |            6s              2.000           -0.135        |                
   |            5d              1.000           -0.114        |                
   |                                                          |                
   |                 Pseudopotential Definition               |                
   |        Beta     l      e      Rc     scheme   norm       |                
   |          1      0   -1.430   2.298     qc      0         |                
   |          2      0   -0.135   2.298     qc      0         |                
   |          3      0    0.250   2.298     qc      0         |                
   |          4      1   -0.823   2.298     qc      0         |                
   |          5      1    0.250   2.298     qc      0         |                
   |          6      2   -0.114   2.298     qc      0         |                
   |          7      2    0.250   2.298     qc      0         |                
   |         loc     2    0.000   2.298     pn      0         |                
   |                                                          |                
   | Augmentation charge Rinner = 1.606                       |                
   | Partial core correction Rc = 1.606                       |                
   ------------------------------------------------------------                
   | "2|2.3|5|6|7|50U:60:51:52(qc=4.5)"                       |                
   ------------------------------------------------------------                
   |      Author: Chris J. Pickard, Cambridge University      |                
   ============================================================                
 
 Pseudo atomic calculation performed for O 2s2 2p4
 
 Converged in 39 iterations to a total energy of -432.6554 eV
 
 
 Pseudo atomic calculation performed for Zr 4s2 4p6 4d2 5s2
 
 Converged in 38 iterations to a total energy of -1285.4931 eV
 
 
 Pseudo atomic calculation performed for Sn 4d10 5s2 5p2
 
 Converged in 48 iterations to a total energy of -2044.5414 eV
 
 
 Pseudo atomic calculation performed for La 5s2 5p6 5d1 6s2
 
 Converged in 34 iterations to a total energy of -968.0372 eV
 
 Calculation parallelised over 56 processes.
 Data is distributed by G-vector(4-way) and k-point(14-way)

 ************************************ Title ************************************
 nmr testing

 ***************************** General Parameters ******************************
  
 output verbosity                               : normal  (1)
 write checkpoint data to                       : 074.check
 type of calculation                            : Magnetic Resonance
 stress calculation                             : on
 density difference calculation                 : off
 electron localisation func (ELF) calculation   : off
 Hirshfeld analysis                             : off
 unlimited duration calculation
 timing information                             : on
 memory usage estimate                          : on
 write final potential to formatted file        : off
 write final density to formatted file          : off
 write structure in CIF formatted file          : on
 write structure in CELL formatted file         : on
 write BibTeX reference list                    : on
 write OTFG pseudopotential files               : on
 checkpoint writing                             : both castep_bin and check files
  
 output         length unit                     : A
 output           mass unit                     : amu
 output           time unit                     : ps
 output         charge unit                     : e
 output           spin unit                     : hbar/2
 output         energy unit                     : eV
 output          force unit                     : eV/A
 output       velocity unit                     : A/ps
 output       pressure unit                     : GPa
 output     inv_length unit                     : 1/A
 output      frequency unit                     : cm-1
 output force constant unit                     : eV/A**2
 output         volume unit                     : A**3
 output   IR intensity unit                     : (D/A)**2/amu
 output         dipole unit                     : D
 output         efield unit                     : eV/A/e
 output        entropy unit                     : J/mol/K
  
 wavefunctions paging                           : none
 random number generator seed                   : randomised (203350080)
 data distribution                              : optimal for this architecture
 optimization strategy                          : maximize speed(+++)

 *********************** Exchange-Correlation Parameters ***********************
  
 using functional                               : Perdew Burke Ernzerhof
 relativistic treatment                         : ZORA
 DFT+D: Semi-empirical dispersion correction    : off

 ************************* Pseudopotential Parameters **************************
  
 pseudopotential representation                 : reciprocal space
 <beta|phi> representation                      : reciprocal space
 spin-orbit coupling                            : off

 **************************** Basis Set Parameters *****************************
  
 plane wave basis set cut-off                   :   816.3416   eV
 size of standard grid                          :     1.7500
 size of   fine   gmax                          :    25.6161   1/A
 finite basis set correction                    : automatic
 number of sample energies                      :          3
           sample  spacing                      :     5.0000   eV

 **************************** Electronic Parameters ****************************
  
 number of  electrons                           :  720.0    
 net charge of system                           :  0.000    
 treating system as non-spin-polarized
 number of bands                                :        432

 ********************* Electronic Minimization Parameters **********************
  
 Method: Treating system as metallic with density mixing treatment of electrons,
         and number of  SD  steps               :          1
         and number of  CG  steps               :          4
  
 total energy / atom convergence tol.           : 0.1000E-08   eV
 eigen-energy convergence tolerance             : 0.2444E-09   eV
 max force / atom convergence tol.              : ignored
 convergence tolerance window                   :          3   cycles
 max. number of SCF cycles                      :         50
 number of fixed-spin iterations                :         10
 smearing scheme                                : Gaussian
 smearing width                                 : 0.2000       eV
 Fermi energy convergence tolerance             : 0.2721E-13   eV
 periodic dipole correction                     : NONE

 ************************** Density Mixing Parameters **************************
  
 density-mixing scheme                          : Broyden
 max. length of mixing history                  :         20
 charge density mixing amplitude                : 0.8000    
 cut-off energy for mixing                      :  816.3       eV

 *********************** Population Analysis Parameters ************************
  
 Population analysis with cutoff                :  3.000       A

 ************************ Magnetic Resonance Parameters ************************
  
 Magnetic Resonance Property                    : Chemical Shielding + EFG
 Position Operator Method                       : crystal
 max. number of MagRes CG steps                 :        250
 convergence tolerance window                   :          2   cycles
 energy convergence tolerance                   : 0.1000E-11   eV
 band convergence tolerance                     : 0.1000E-08   eV

 *******************************************************************************
  
 
                           -------------------------------
                                      Unit Cell
                           -------------------------------
        Real Lattice(A)                      Reciprocal Lattice(1/A)
  10.9025787   0.0015904  -0.0042267        0.5763028  -0.0000840   0.0002234
   0.0015904  10.9025787  -0.0042267       -0.0000840   0.5763028   0.0002234
  -0.0042244  -0.0042244  10.8983024        0.0002235   0.0002235   0.5765290
 
                       Lattice parameters(A)       Cell Angles
                    a =   10.902580          alpha =   90.044425
                    b =   10.902580          beta  =   90.044425
                    c =   10.898304          gamma =   89.983275
 
                       Current cell volume = 1295.439612       A**3
 
                           -------------------------------
                                     Cell Contents
                           -------------------------------
                         Total number of ions in cell =   88
                      Total number of species in cell =    4
                        Max number of any one species =   56
 
            xxxxxxxxxxxxxxxxxxxxxxxxxxxxxxxxxxxxxxxxxxxxxxxxxxxxxxxxxxxx
            x  Element    Atom        Fractional coordinates of atoms  x
            x            Number           u          v          w      x
            x----------------------------------------------------------x
            x  O            1         0.124585   0.124585   0.124924   x 
            x  O            2         0.625177   0.124885   0.624895   x 
            x  O            3         0.124885   0.625177   0.624895   x 
            x  O            4         0.625173   0.625173   0.125001   x 
            x  O            5         0.874464   0.375061   0.375050   x 
            x  O            6         0.874693   0.874693   0.874869   x 
            x  O            7         0.375391   0.375391   0.874722   x 
            x  O            8         0.375061   0.874464   0.375050   x 
            x  O            9         0.419299   0.125453   0.124962   x 
            x  O           10         0.330978   0.125270   0.624898   x 
            x  O           11         0.829745   0.625526   0.625654   x 
            x  O           12         0.920579   0.624182   0.124302   x 
            x  O           13         0.125453   0.419299   0.124962   x 
            x  O           14         0.624123   0.329553   0.125642   x 
            x  O           15         0.625526   0.829745   0.625654   x 
            x  O           16         0.125293   0.919620   0.625248   x 
            x  O           17         0.125467   0.125467   0.419484   x 
            x  O           18         0.125760   0.624041   0.329252   x 
            x  O           19         0.626077   0.626077   0.830116   x 
            x  O           20         0.624287   0.124444   0.920463   x 
            x  O           21         0.875095   0.669865   0.374734   x 
            x  O           22         0.875965   0.579081   0.875920   x 
            x  O           23         0.374418   0.080766   0.875023   x 
            x  O           24         0.374421   0.169011   0.375040   x 
            x  O           25         0.169011   0.374421   0.375040   x 
            x  O           26         0.078902   0.875609   0.376412   x 
            x  O           27         0.579081   0.875965   0.875920   x 
            x  O           28         0.669802   0.375006   0.875291   x 
            x  O           29         0.875615   0.375561   0.079401   x 
            x  O           30         0.374390   0.374390   0.169517   x 
            x  O           31         0.374046   0.876278   0.670813   x 
            x  O           32         0.876239   0.876239   0.579069   x 
            x  O           33         0.669865   0.875095   0.374734   x 
            x  O           34         0.080766   0.374418   0.875023   x 
            x  O           35         0.375006   0.669802   0.875291   x 
            x  O           36         0.875609   0.078902   0.376412   x 
            x  O           37         0.876278   0.374046   0.670813   x 
            x  O           38         0.375561   0.875615   0.079401   x 
            x  O           39         0.125270   0.330978   0.624898   x 
            x  O           40         0.624182   0.920579   0.124302   x 
            x  O           41         0.919620   0.125293   0.625248   x 
            x  O           42         0.329553   0.624123   0.125642   x 
            x  O           43         0.124444   0.624287   0.920463   x 
            x  O           44         0.624041   0.125760   0.329252   x 
            x  O           45         0.420173   0.625626   0.624384   x 
            x  O           46         0.829954   0.125347   0.125274   x 
            x  O           47         0.125580   0.125580   0.830560   x 
            x  O           48         0.624908   0.624908   0.419818   x 
            x  O           49         0.875462   0.170475   0.873724   x 
            x  O           50         0.374326   0.579467   0.374109   x 
            x  O           51         0.170475   0.875462   0.873724   x 
            x  O           52         0.579467   0.374326   0.374109   x 
            x  O           53         0.873864   0.873864   0.169631   x 
            x  O           54         0.374049   0.374049   0.579271   x 
            x  O           55         0.125347   0.829954   0.125274   x 
            x  O           56         0.625626   0.420173   0.624384   x 
            x  Zr           1         0.499613   0.499613   0.499297   x 
            x  Zr           2         0.250150   0.749846   0.999986   x 
            x  Zr           3         0.749479   0.000093   0.249729   x 
            x  Zr           4         0.749846   0.250150   0.999986   x 
            x  Zr           5         0.000093   0.749479   0.249729   x 
            x  Zr           6         0.751321   0.499635   0.751306   x 
            x  Zr           7         0.750935   0.750935   0.499780   x 
            x  Zr           8         0.499635   0.751321   0.751306   x 
            x  Sn           1         0.001211   0.249205   0.749064   x 
            x  Sn           2         0.249205   0.001211   0.749064   x 
            x  Sn           3         0.499657   0.000372   0.000116   x 
            x  Sn           4         0.249611   0.249611   0.500353   x 
            x  Sn           5         0.250405   0.499065   0.250480   x 
            x  Sn           6         0.000372   0.499657   0.000116   x 
            x  Sn           7         0.499065   0.250405   0.250480   x 
            x  Sn           8         0.001739   0.001739   0.501739   x 
            x  La           1         0.999525   0.999525   0.000468   x 
            x  La           2         0.749502   0.250409   0.500065   x 
            x  La           3         0.250486   0.500562   0.749929   x 
            x  La           4         0.500295   0.749857   0.250249   x 
            x  La           5         0.250409   0.749502   0.500065   x 
            x  La           6         0.749857   0.500295   0.250249   x 
            x  La           7         0.500562   0.250486   0.749929   x 
            x  La           8         0.999646   0.500365   0.499808   x 
            x  La           9         0.750031   0.750031   0.000198   x 
            x  La          10         0.249616   0.999170   0.249640   x 
            x  La          11         0.249975   0.249975   0.999855   x 
            x  La          12         0.749678   0.999804   0.750021   x 
            x  La          13         0.500365   0.999646   0.499808   x 
            x  La          14         0.999804   0.749678   0.750021   x 
            x  La          15         0.999170   0.249616   0.249640   x 
            x  La          16         0.500315   0.500315   0.999562   x 
            xxxxxxxxxxxxxxxxxxxxxxxxxxxxxxxxxxxxxxxxxxxxxxxxxxxxxxxxxxxx
 
 
                         No user defined ionic velocities
 
                           -------------------------------
                                   Details of Species
                           -------------------------------
 
                               Mass of species in AMU
                                    O   15.9994000
                                    Zr   91.2240000
                                    Sn  118.7100000
                                    La  138.9055000
 
                          Electric Quadrupole Moment (Barn)
                                    O   -0.0255800 Isotope 17
                                    Zr   -0.1760000 Isotope 91
                                    Sn    1.0000000 No Isotope Defined
                                    La    0.2000000 Isotope139
 
                          Files used for pseudopotentials:
                                    O 2|1.1|15|18|20|20:21(qc=7)
                                    Zr 3|2.1|7|8|9|40U:50:41:42
                                    Sn 3|2.2|7|8|9|50:51:42
                                    La 2|2.3|5|6|7|50U:60:51:52(qc=4.5)
 
                           -------------------------------
                              k-Points For BZ Sampling
                           -------------------------------
                       MP grid size for SCF calculation is  3  3  3
                            with an offset of   0.000  0.000  0.000
                       Number of kpoints used =            14
 
                           -------------------------------
                               Symmetry and Constraints
                           -------------------------------
 
                      Maximum deviation from symmetry =  0.00000         ANG
 
         There are no symmetry operations specified or generated for this cell
                      Number of ionic constraints     =           3
                      Point group of crystal =     1: C1, 1, 1
                      Space group of crystal =     8: Cm, C -2y
 
 
                         Centre of mass is constrained
             Set iprint > 1 for details of linear ionic constraints
 
                         Number of cell constraints= 0
                         Cell constraints are:  1 2 3 4 5 6
 
                         External pressure/stress (GPa)
                          0.00000   0.00000   0.00000
                                    0.00000   0.00000
                                              0.00000
  
+---------------- MEMORY AND SCRATCH DISK ESTIMATES PER PROCESS --------------+
|                                                     Memory          Disk    |
| Baseline code, static data and system overhead      322.0 MB         0.0 MB |
| BLAS internal memory storage                          0.0 MB         0.0 MB |
| Model and support data                             1319.1 MB         0.0 MB |
| Electronic energy minimisation requirements         381.7 MB         0.0 MB |
| Force calculation requirements                       24.1 MB         0.0 MB |
| Stress calculation requirements                      28.3 MB         0.0 MB |
|                                               ----------------------------- |
| Approx. total storage required per process         2022.8 MB         0.0 MB |
|                                                                             |
| Requirements will fluctuate during execution and may exceed these estimates |
+-----------------------------------------------------------------------------+
Calculating finite basis set correction with  3 cut-off energies.
Calculating total energy with cut-off of  806.342eV.
------------------------------------------------------------------------ <-- SCF
SCF loop      Energy           Fermi           Energy gain       Timer   <-- SCF
                               energy          per atom          (sec)   <-- SCF
------------------------------------------------------------------------ <-- SCF
Initial  -5.62642381E+004  0.00000000E+000                        75.67  <-- SCF
      1  -6.45254988E+004  7.52131212E+000   9.38779630E+001     216.80  <-- SCF
      2  -6.70869490E+004  6.80695569E+000   2.91073890E+001     309.40  <-- SCF
      3  -6.71704417E+004  6.40656924E+000   9.48780369E-001     413.28  <-- SCF
      4  -6.71644909E+004  7.63529674E+000  -6.76231116E-002     544.83  <-- SCF
      5  -6.70612784E+004  6.94641491E+000  -1.17286912E+000     673.84  <-- SCF
      6  -6.70626311E+004  6.81453934E+000   1.53722031E-002     834.37  <-- SCF
      7  -6.70623023E+004  6.90249623E+000  -3.73656340E-003     973.61  <-- SCF
      8  -6.70623850E+004  6.90267414E+000   9.39919093E-004    1155.02  <-- SCF
      9  -6.70624058E+004  6.90044402E+000   2.36115046E-004    1304.47  <-- SCF
     10  -6.70624063E+004  6.89725550E+000   5.15848621E-006    1443.46  <-- SCF
     11  -6.70624056E+004  6.89839844E+000  -7.94825379E-006    1583.82  <-- SCF
     12  -6.70624058E+004  6.89785189E+000   2.24710255E-006    1736.49  <-- SCF
     13  -6.70624058E+004  6.89711265E+000   7.32094837E-008    1872.72  <-- SCF
     14  -6.70624057E+004  6.89674081E+000  -5.38822953E-007    2011.36  <-- SCF
     15  -6.70624057E+004  6.89618890E+000  -1.27077647E-007    2158.31  <-- SCF
     16  -6.70624057E+004  6.89596516E+000   1.73802742E-009    2286.51  <-- SCF
     17  -6.70624057E+004  6.89589235E+000  -1.09470417E-009    2407.99  <-- SCF
     18  -6.70624057E+004  6.89582771E+000   3.74322735E-010    2508.23  <-- SCF
     19  -6.70624057E+004  6.89579071E+000   3.50699061E-010    2602.30  <-- SCF
------------------------------------------------------------------------ <-- SCF
 
Final energy, E             =  -67062.40571742     eV
Final free energy (E-TS)    =  -67062.40571742     eV
(energies not corrected for finite basis set)
 
NB est. 0K energy (E-0.5TS)      =  -67062.40571742     eV
 
Calculating total energy with cut-off of  811.342eV.
------------------------------------------------------------------------ <-- SCF
SCF loop      Energy           Fermi           Energy gain       Timer   <-- SCF
                               energy          per atom          (sec)   <-- SCF
------------------------------------------------------------------------ <-- SCF
Initial  -6.70624057E+004  0.00000000E+000                      2637.75  <-- SCF
      1  -6.70624082E+004  6.89579868E+000   2.80743415E-005    2750.51  <-- SCF
      2  -6.70624082E+004  6.89579868E+000   2.00519993E-010    2840.52  <-- SCF
      3  -6.70624082E+004  6.89578789E+000   1.64252029E-008    2930.15  <-- SCF
      4  -6.70624082E+004  6.89579561E+000   4.58974233E-010    3019.02  <-- SCF
      5  -6.70624082E+004  6.89579359E+000  -1.48772898E-010    3107.80  <-- SCF
------------------------------------------------------------------------ <-- SCF
 
Final energy, E             =  -67062.40818944     eV
Final free energy (E-TS)    =  -67062.40818944     eV
(energies not corrected for finite basis set)
 
NB est. 0K energy (E-0.5TS)      =  -67062.40818944     eV
 
Calculating total energy with cut-off of  816.342eV.
------------------------------------------------------------------------ <-- SCF
SCF loop      Energy           Fermi           Energy gain       Timer   <-- SCF
                               energy          per atom          (sec)   <-- SCF
------------------------------------------------------------------------ <-- SCF
Initial  -6.70624082E+004  0.00000000E+000                      3143.62  <-- SCF
      1  -6.70624111E+004  6.89578456E+000   3.34627666E-005    3256.25  <-- SCF
      2  -6.70624111E+004  6.89578456E+000   2.07550848E-010    3344.71  <-- SCF
      3  -6.70624111E+004  6.89578507E+000   2.07550848E-008    3433.73  <-- SCF
      4  -6.70624111E+004  6.89578849E+000   6.79180620E-010    3522.42  <-- SCF
      5  -6.70624111E+004  6.89578774E+000  -1.02369253E-010    3610.71  <-- SCF
------------------------------------------------------------------------ <-- SCF
 
Final energy, E             =  -67062.41113606     eV
Final free energy (E-TS)    =  -67062.41113606     eV
(energies not corrected for finite basis set)
 
NB est. 0K energy (E-0.5TS)      =  -67062.41113606     eV
 
 For future reference: finite basis dEtot/dlog(Ecut) =      -0.439131eV
 Total energy corrected for finite basis set =  -67062.411142 eV
 
  =====================================================================
  +       Calculation of Nuclear Magnetic Resonance Parameters        +
  + ================================================================= +
 
  Starting Calculation of Electric Field Gradient Tensors         |<-- EFG
  +---------------- MEMORY AND SCRATCH DISK ESTIMATES PER PROCESS --------------+
  |                                                     Memory          Disk    |
  | Model and support data                             1316.8 MB         0.0 MB |
  | NMR EFG calculation requirements                    367.4 MB         0.0 MB |
  |                                               ----------------------------- |
  | Approx. total storage required per process         1684.2 MB         0.0 MB |
  |                                                                             |
  | Requirements will fluctuate during execution and may exceed these estimates |
  +-----------------------------------------------------------------------------+
  Total Time for EFG Tensors                     407.45 sec       |<-- EFG
 
  Starting Calculation of Chemical Shielding Tensors              |<-- NMR
  +---------------- MEMORY AND SCRATCH DISK ESTIMATES PER PROCESS --------------+
  |                                                     Memory          Disk    |
  | Model and support data                             1316.8 MB         0.0 MB |
  | NMR chemical shift calculation requirements         564.2 MB         0.0 MB |
  |                                               ----------------------------- |
  | Approx. total storage required per process         1881.0 MB         0.0 MB |
  |                                                                             |
  | Requirements will fluctuate during execution and may exceed these estimates |
  +-----------------------------------------------------------------------------+
  Starting k-point:   1 of   1                                    |<-- NMR
  Total Time for step 1 of 6:                   3291.93 sec       |<-- NMR
  Total Time for step 2 of 6:                   3273.83 sec       |<-- NMR
  Total Time for step 3 of 6:                   3291.00 sec       |<-- NMR
  Total Time for step 4 of 6:                   3281.26 sec       |<-- NMR
  Total Time for step 5 of 6:                   3301.16 sec       |<-- NMR
  Total Time for step 6 of 6:                   3292.30 sec       |<-- NMR
  Total Time for Chemical Shielding Tensors    29522.51 sec       |<-- NMR
 
  ========================================================================
  |           Chemical Shielding and Electric Field Gradient Tensors     |
  |----------------------------------------------------------------------|
  |     Nucleus                Shielding tensor             EFG Tensor   |
  |  Species       Ion    Iso(ppm)   Aniso(ppm)  Asym    Cq(MHz)    Eta  |
  |    O           1     -318.18     -18.77      0.61  -2.237E-02   0.65 |
  |    O           2     -316.89       6.16      0.85  -6.211E-02   0.30 |
  |    O           3     -316.89       6.16      0.84  -6.211E-02   0.30 |
  |    O           4     -317.05       7.39      0.70  -6.565E-02   0.65 |
  |    O           5     -318.73      -4.31      0.59  -8.116E-02   0.41 |
  |    O           6     -318.71       9.77      0.17  -8.629E-02   0.58 |
  |    O           7     -319.31     -15.09      0.30  -5.532E-02   0.34 |
  |    O           8     -318.73      -4.31      0.59  -8.116E-02   0.41 |
  |    O           9        1.69      66.97      0.98   3.830E+00   0.93 |
  |    O          10      -19.36     -40.50      0.81   3.866E+00   0.87 |
  |    O          11     -160.13     145.37      0.76   1.073E+00   0.70 |
  |    O          12      -90.73      87.40      0.14  -3.235E+00   0.12 |
  |    O          13        1.69      66.96      0.98   3.830E+00   0.93 |
  |    O          14      -90.49      87.67      0.31  -3.172E+00   0.10 |
  |    O          15     -160.13     145.37      0.76   1.073E+00   0.70 |
  |    O          16      -20.29      39.75      0.27   3.966E+00   0.79 |
  |    O          17      -17.03      36.44      0.98   3.896E+00   0.87 |
  |    O          18      -86.75      87.75      0.29  -3.173E+00   0.10 |
  |    O          19     -161.69     150.82      0.75   1.006E+00   0.82 |
  |    O          20      -85.63      85.35      0.30  -3.229E+00   0.09 |
  |    O          21     -162.86     151.15      0.82   1.082E+00   0.78 |
  |    O          22      -91.59      98.73      0.17  -3.199E+00   0.11 |
  |    O          23       -1.36      66.48      0.98   3.810E+00   0.93 |
  |    O          24      -12.60      56.33      0.88   3.811E+00   0.90 |
  |    O          25      -12.60      56.33      0.88   3.811E+00   0.90 |
  |    O          26      -84.95      84.92      0.23  -3.170E+00   0.07 |
  |    O          27      -91.59      98.73      0.17  -3.199E+00   0.11 |
  |    O          28     -163.81     153.57      0.85   1.085E+00   0.77 |
  |    O          29      -85.92      87.79      0.36  -3.224E+00   0.09 |
  |    O          30       -8.00      59.25      0.69   3.891E+00   0.88 |
  |    O          31      -88.32      83.02      0.07  -3.221E+00   0.09 |
  |    O          32      -88.16      87.52      0.04  -3.130E+00   0.08 |
  |    O          33     -162.86     151.15      0.82   1.082E+00   0.78 |
  |    O          34       -1.36      66.48      0.98   3.810E+00   0.93 |
  |    O          35     -163.81     153.57      0.85   1.085E+00   0.77 |
  |    O          36      -84.95      84.92      0.23  -3.170E+00   0.07 |
  |    O          37      -88.32      83.01      0.07  -3.221E+00   0.09 |
  |    O          38      -85.91      87.79      0.36  -3.224E+00   0.09 |
  |    O          39      -19.36     -40.50      0.81   3.866E+00   0.87 |
  |    O          40      -90.73      87.40      0.14  -3.235E+00   0.12 |
  |    O          41      -20.29      39.75      0.27   3.966E+00   0.79 |
  |    O          42      -90.49      87.67      0.31  -3.172E+00   0.10 |
  |    O          43      -85.63      85.35      0.30  -3.229E+00   0.09 |
  |    O          44      -86.75      87.75      0.29  -3.173E+00   0.10 |
  |    O          45     -161.39     142.82      0.76   1.052E+00   0.68 |
  |    O          46     -160.38     147.79      0.86   1.096E+00   0.68 |
  |    O          47      -15.75     -39.79      0.80   3.904E+00   0.88 |
  |    O          48     -163.82     143.64      0.76   1.006E+00   0.82 |
  |    O          49      -90.20      86.22      0.19  -3.179E+00   0.08 |
  |    O          50      -92.56      87.34      0.11  -3.257E+00   0.13 |
  |    O          51      -90.19      86.23      0.19  -3.179E+00   0.08 |
  |    O          52      -92.56      87.33      0.11  -3.257E+00   0.13 |
  |    O          53     -161.85     151.68      0.80   1.022E+00   0.80 |
  |    O          54      -89.31      78.18      0.10  -3.267E+00   0.10 |
  |    O          55     -160.38     147.79      0.86   1.096E+00   0.68 |
  |    O          56     -161.39     142.82      0.76   1.052E+00   0.68 |
  |    Zr          1     1610.40    -113.36      0.06  -3.760E+01   0.06 |
  |    Zr          2     1623.22    -125.41      0.15  -3.631E+01   0.20 |
  |    Zr          3     1628.52    -124.14      0.08  -3.740E+01   0.11 |
  |    Zr          4     1623.22    -125.41      0.15  -3.631E+01   0.20 |
  |    Zr          5     1628.52    -124.14      0.08  -3.740E+01   0.11 |
  |    Zr          6     1623.53    -118.32      0.15  -3.853E+01   0.07 |
  |    Zr          7     1629.58    -119.53      0.07  -3.948E+01   0.06 |
  |    Zr          8     1623.53    -118.32      0.15  -3.853E+01   0.07 |
  |    Sn          1     3245.50     -60.90      0.11   1.220E+02   0.09 |
  |    Sn          2     3245.50     -60.90      0.11   1.220E+02   0.09 |
  |    Sn          3     3258.90     -56.43      0.18   1.282E+02   0.07 |
  |    Sn          4     3245.20     -64.33      0.06   1.205E+02   0.24 |
  |    Sn          5     3255.57     -59.55      0.31   1.257E+02   0.12 |
  |    Sn          6     3258.90     -56.43      0.18   1.282E+02   0.07 |
  |    Sn          7     3255.57     -59.55      0.31   1.257E+02   0.12 |
  |    Sn          8     3239.42     -47.39      0.26   1.222E+02   0.08 |
  |    La          1     4708.69     746.95      0.02  -8.543E+01   0.08 |
  |    La          2     4651.79     659.00      0.09  -8.088E+01   0.16 |
  |    La          3     4656.49     621.32      0.01  -8.096E+01   0.03 |
  |    La          4     4700.72     765.60      0.05  -8.359E+01   0.08 |
  |    La          5     4651.78     659.00      0.09  -8.088E+01   0.16 |
  |    La          6     4700.72     765.61      0.05  -8.359E+01   0.08 |
  |    La          7     4656.49     621.32      0.01  -8.096E+01   0.03 |
  |    La          8     4661.22     628.87      0.01  -8.089E+01   0.03 |
  |    La          9     4698.88     792.11      0.11  -8.206E+01   0.11 |
  |    La         10     4610.52     506.48      0.07  -7.773E+01   0.06 |
  |    La         11     4501.25     217.89      0.02  -6.845E+01   0.01 |
  |    La         12     4655.60     668.33      0.09  -8.128E+01   0.14 |
  |    La         13     4661.22     628.87      0.01  -8.089E+01   0.03 |
  |    La         14     4655.60     668.32      0.09  -8.128E+01   0.14 |
  |    La         15     4610.52     506.48      0.07  -7.773E+01   0.06 |
  |    La         16     4706.47     756.21      0.02  -8.401E+01   0.06 |
  ========================================================================
 
 *********************** Forces ***********************
 *                                                    *
 *            Cartesian components (eV/A)             *
 * -------------------------------------------------- *
 *                   x            y            z      *
 *                                                    *
 * O         1     -0.00255     -0.00255     -0.00244 *
 * O         2      0.00066      0.00001     -0.00021 *
 * O         3      0.00001      0.00066     -0.00021 *
 * O         4      0.00532      0.00532     -0.00614 *
 * O         5     -0.00327      0.00211     -0.00355 *
 * O         6     -0.00990     -0.00990      0.00511 *
 * O         7      0.00109      0.00109      0.00098 *
 * O         8      0.00211     -0.00327     -0.00355 *
 * O         9      0.01090     -0.00086      0.00133 *
 * O        10     -0.00908     -0.00392     -0.00038 *
 * O        11      0.00160     -0.00098      0.01238 *
 * O        12      0.00560     -0.01756     -0.02037 *
 * O        13     -0.00086      0.01090      0.00133 *
 * O        14     -0.01256     -0.00043      0.01524 *
 * O        15     -0.00098      0.00160      0.01238 *
 * O        16     -0.00696      0.00438     -0.00288 *
 * O        17      0.00457      0.00457      0.00326 *
 * O        18      0.01244     -0.01416     -0.00576 *
 * O        19      0.01004      0.01004      0.00423 *
 * O        20     -0.01439     -0.02478      0.00297 *
 * O        21      0.00551      0.01140     -0.01695 *
 * O        22      0.02367     -0.00206      0.03191 *
 * O        23     -0.00032     -0.01373     -0.00554 *
 * O        24     -0.00510      0.00190     -0.00255 *
 * O        25      0.00190     -0.00510     -0.00255 *
 * O        26     -0.00141      0.00400      0.01920 *
 * O        27     -0.00206      0.02367      0.03191 *
 * O        28      0.01912      0.00228      0.00981 *
 * O        29      0.00602      0.02755     -0.00776 *
 * O        30     -0.00073     -0.00073     -0.00339 *
 * O        31     -0.01844      0.02576      0.00403 *
 * O        32      0.03302      0.03302      0.00773 *
 * O        33      0.01140      0.00551     -0.01695 *
 * O        34     -0.01373     -0.00032     -0.00554 *
 * O        35      0.00229      0.01912      0.00981 *
 * O        36      0.00400     -0.00141      0.01920 *
 * O        37      0.02576     -0.01844      0.00403 *
 * O        38      0.02755      0.00602     -0.00776 *
 * O        39     -0.00391     -0.00908     -0.00038 *
 * O        40     -0.01756      0.00560     -0.02037 *
 * O        41      0.00438     -0.00696     -0.00288 *
 * O        42     -0.00043     -0.01256      0.01524 *
 * O        43     -0.02478     -0.01439      0.00297 *
 * O        44     -0.01416      0.01244     -0.00576 *
 * O        45      0.00950      0.00945      0.00980 *
 * O        46     -0.01723     -0.00700     -0.00644 *
 * O        47     -0.00354     -0.00354     -0.00724 *
 * O        48      0.00065      0.00065      0.00547 *
 * O        49      0.01389     -0.00227     -0.02208 *
 * O        50     -0.00527     -0.01354     -0.01190 *
 * O        51     -0.00227      0.01389     -0.02208 *
 * O        52     -0.01354     -0.00527     -0.01190 *
 * O        53     -0.01209     -0.01209      0.00619 *
 * O        54     -0.01495     -0.01495     -0.00021 *
 * O        55     -0.00700     -0.01723     -0.00644 *
 * O        56      0.00945      0.00950      0.00980 *
 * Zr        1      0.01489      0.01489      0.03125 *
 * Zr        2     -0.00964     -0.00053      0.00276 *
 * Zr        3     -0.00058      0.02418      0.00052 *
 * Zr        4     -0.00053     -0.00963      0.00276 *
 * Zr        5      0.02418     -0.00058      0.00052 *
 * Zr        6      0.00271     -0.00339     -0.01266 *
 * Zr        7      0.00316      0.00316      0.01548 *
 * Zr        8     -0.00339      0.00271     -0.01266 *
 * Sn        1     -0.00700      0.00271      0.00751 *
 * Sn        2      0.00271     -0.00700      0.00751 *
 * Sn        3     -0.01696      0.02165      0.00440 *
 * Sn        4      0.00515      0.00515     -0.00837 *
 * Sn        5     -0.00458     -0.00085      0.00000 *
 * Sn        6      0.02165     -0.01695      0.00440 *
 * Sn        7     -0.00085     -0.00458      0.00000 *
 * Sn        8     -0.01094     -0.01094     -0.02748 *
 * La        1      0.01388      0.01388     -0.01093 *
 * La        2     -0.00332     -0.00204     -0.00391 *
 * La        3      0.00456     -0.01269     -0.00999 *
 * La        4     -0.01237     -0.01222      0.00385 *
 * La        5     -0.00204     -0.00332     -0.00391 *
 * La        6     -0.01222     -0.01237      0.00385 *
 * La        7     -0.01269      0.00456     -0.00999 *
 * La        8      0.00107     -0.00717      0.00113 *
 * La        9     -0.00256     -0.00256      0.00100 *
 * La       10     -0.00845      0.00755      0.00274 *
 * La       11     -0.00062     -0.00062      0.00290 *
 * La       12      0.00590      0.00997     -0.00913 *
 * La       13     -0.00717      0.00107      0.00113 *
 * La       14      0.00998      0.00589     -0.00913 *
 * La       15      0.00755     -0.00844      0.00274 *
 * La       16     -0.01487     -0.01487      0.00754 *
 *                                                    *
 ******************************************************
 
 ***************** Stress Tensor *****************
 *                                               *
 *          Cartesian components (GPa)           *
 * --------------------------------------------- *
 *             x             y             z     *
 *                                               *
 *  x      0.044884      0.002087     -0.025014  *
 *  y      0.002087      0.044884     -0.025015  *
 *  z     -0.025014     -0.025015      0.026090  *
 *                                               *
 *  Pressure:   -0.0386                          *
 *                                               *
 *************************************************
 
 Pseudo atomic calculation performed for O 2s2 2p4
 
 Converged in 39 iterations to a total energy of -432.6554 eV
 
 
 Pseudo atomic calculation performed for Zr 4s2 4p6 4d2 5s2
 
 Converged in 38 iterations to a total energy of -1285.4931 eV
 
 
 Pseudo atomic calculation performed for Sn 4d10 5s2 5p2
 
 Converged in 48 iterations to a total energy of -2044.5414 eV
 
 
 Pseudo atomic calculation performed for La 5s2 5p6 5d1 6s2
 
 Converged in 34 iterations to a total energy of -968.0372 eV
 
Charge spilling parameter for spin component 1 = 0.24%
 
     Atomic Populations (Mulliken)
     -----------------------------
Species   Ion     s      p      d      f     Total  Charge (e)
==============================================================
  O        1     1.87   5.00   0.00   0.00   6.87    -0.87
  O        2     1.87   5.00   0.00   0.00   6.87    -0.87
  O        3     1.87   5.00   0.00   0.00   6.87    -0.87
  O        4     1.87   5.00   0.00   0.00   6.87    -0.87
  O        5     1.87   5.00   0.00   0.00   6.87    -0.87
  O        6     1.87   5.00   0.00   0.00   6.87    -0.87
  O        7     1.87   5.00   0.00   0.00   6.87    -0.87
  O        8     1.87   5.00   0.00   0.00   6.87    -0.87
  O        9     1.88   5.02   0.00   0.00   6.91    -0.91
  O       10     1.88   5.02   0.00   0.00   6.91    -0.91
  O       11     1.86   4.95   0.00   0.00   6.80    -0.80
  O       12     1.87   4.99   0.00   0.00   6.86    -0.86
  O       13     1.88   5.02   0.00   0.00   6.91    -0.91
  O       14     1.87   4.99   0.00   0.00   6.86    -0.86
  O       15     1.86   4.95   0.00   0.00   6.80    -0.80
  O       16     1.88   5.03   0.00   0.00   6.91    -0.91
  O       17     1.88   5.03   0.00   0.00   6.91    -0.91
  O       18     1.87   4.99   0.00   0.00   6.86    -0.86
  O       19     1.86   4.95   0.00   0.00   6.80    -0.80
  O       20     1.87   4.99   0.00   0.00   6.86    -0.86
  O       21     1.86   4.95   0.00   0.00   6.80    -0.80
  O       22     1.87   4.99   0.00   0.00   6.85    -0.85
  O       23     1.88   5.02   0.00   0.00   6.91    -0.91
  O       24     1.88   5.02   0.00   0.00   6.91    -0.91
  O       25     1.88   5.02   0.00   0.00   6.91    -0.91
  O       26     1.87   4.99   0.00   0.00   6.86    -0.86
  O       27     1.87   4.99   0.00   0.00   6.86    -0.86
  O       28     1.86   4.95   0.00   0.00   6.80    -0.80
  O       29     1.87   4.99   0.00   0.00   6.86    -0.86
  O       30     1.88   5.02   0.00   0.00   6.91    -0.91
  O       31     1.87   4.99   0.00   0.00   6.86    -0.86
  O       32     1.87   4.99   0.00   0.00   6.85    -0.85
  O       33     1.86   4.95   0.00   0.00   6.80    -0.80
  O       34     1.88   5.02   0.00   0.00   6.91    -0.91
  O       35     1.86   4.95   0.00   0.00   6.80    -0.80
  O       36     1.87   4.99   0.00   0.00   6.86    -0.86
  O       37     1.87   4.99   0.00   0.00   6.86    -0.86
  O       38     1.87   4.99   0.00   0.00   6.86    -0.86
  O       39     1.88   5.02   0.00   0.00   6.91    -0.91
  O       40     1.87   4.99   0.00   0.00   6.86    -0.86
  O       41     1.88   5.03   0.00   0.00   6.91    -0.91
  O       42     1.87   4.99   0.00   0.00   6.86    -0.86
  O       43     1.87   4.99   0.00   0.00   6.86    -0.86
  O       44     1.87   4.99   0.00   0.00   6.86    -0.86
  O       45     1.86   4.95   0.00   0.00   6.80    -0.80
  O       46     1.86   4.95   0.00   0.00   6.80    -0.80
  O       47     1.88   5.02   0.00   0.00   6.91    -0.91
  O       48     1.86   4.94   0.00   0.00   6.80    -0.80
  O       49     1.87   4.99   0.00   0.00   6.86    -0.86
  O       50     1.87   4.99   0.00   0.00   6.86    -0.86
  O       51     1.87   4.99   0.00   0.00   6.86    -0.86
  O       52     1.87   4.99   0.00   0.00   6.86    -0.86
  O       53     1.86   4.95   0.00   0.00   6.80    -0.80
  O       54     1.87   4.99   0.00   0.00   6.86    -0.86
  O       55     1.86   4.95   0.00   0.00   6.80    -0.80
  O       56     1.86   4.95   0.00   0.00   6.80    -0.80
  Zr       1     2.37   6.49   1.92   0.00  10.78     1.22
  Zr       2     2.37   6.49   1.92   0.00  10.78     1.22
  Zr       3     2.37   6.48   1.92   0.00  10.77     1.23
  Zr       4     2.37   6.49   1.92   0.00  10.78     1.22
  Zr       5     2.37   6.48   1.92   0.00  10.77     1.23
  Zr       6     2.37   6.47   1.92   0.00  10.76     1.24
  Zr       7     2.36   6.46   1.93   0.00  10.75     1.25
  Zr       8     2.37   6.47   1.92   0.00  10.76     1.24
  Sn       1     1.05   1.31  10.00   0.00  12.36     1.64
  Sn       2     1.05   1.31  10.00   0.00  12.36     1.64
  Sn       3     1.05   1.31  10.00   0.00  12.36     1.64
  Sn       4     1.05   1.32  10.00   0.00  12.36     1.64
  Sn       5     1.05   1.31  10.00   0.00  12.36     1.64
  Sn       6     1.05   1.31  10.00   0.00  12.36     1.64
  Sn       7     1.05   1.31  10.00   0.00  12.36     1.64
  Sn       8     1.05   1.31  10.00   0.00  12.36     1.64
  La       1     2.05   6.17   1.19   0.00   9.41     1.59
  La       2     2.08   6.17   1.19   0.00   9.44     1.56
  La       3     2.07   6.18   1.19   0.00   9.44     1.56
  La       4     2.03   6.16   1.19   0.00   9.38     1.62
  La       5     2.08   6.17   1.19   0.00   9.44     1.56
  La       6     2.03   6.16   1.19   0.00   9.38     1.62
  La       7     2.07   6.18   1.19   0.00   9.44     1.56
  La       8     2.06   6.18   1.19   0.00   9.42     1.58
  La       9     2.04   6.15   1.20   0.00   9.38     1.62
  La      10     2.10   6.19   1.19   0.00   9.48     1.52
  La      11     2.15   6.22   1.19   0.00   9.56     1.44
  La      12     2.06   6.17   1.19   0.00   9.42     1.58
  La      13     2.06   6.18   1.19   0.00   9.42     1.58
  La      14     2.06   6.17   1.19   0.00   9.42     1.58
  La      15     2.10   6.19   1.19   0.00   9.48     1.52
  La      16     2.04   6.17   1.19   0.00   9.40     1.60
==============================================================
 
            Bond              Population      Length (A)
============================================================
         O 50 -- Sn 5              0.34        2.09884
         O 52 -- Sn 7              0.34        2.09884
         O 54 -- Sn 4              0.35        2.10201
         O 27 -- Sn 3              0.34        2.10234
         O 22 -- Sn 6              0.34        2.10234
         O 41 -- Sn 8              0.34        2.10388
         O 16 -- Sn 8              0.34        2.10388
         O 12 -- Sn 6              0.34        2.10477
         O 40 -- Sn 3              0.34        2.10477
         O 29 -- Sn 6              0.35        2.10521
         O 38 -- Sn 3              0.35        2.10521
         O 41 -- Sn 1              0.33        2.10553
         O 16 -- Sn 2              0.33        2.10553
         O 31 -- Sn 2              0.35        2.10572
         O 37 -- Sn 1              0.35        2.10572
         O 43 -- Sn 6              0.35        2.10580
         O 20 -- Sn 3              0.35        2.10580
         O 27 -- Zr 8              0.45        2.10651
         O 22 -- Zr 6              0.45        2.10651
         O 17 -- Sn 4              0.35        2.10665
         O 44 -- Sn 7              0.34        2.10695
         O 18 -- Sn 5              0.34        2.10695
         O 47 -- Sn 2              0.34        2.10784
         O 47 -- Sn 1              0.34        2.10784
         O 17 -- Sn 8              0.34        2.10898
         O 30 -- Sn 5              0.34        2.11006
         O 30 -- Sn 7              0.34        2.11006
         O 32 -- Sn 8              0.34        2.11169
         O 14 -- Sn 7              0.34        2.11187
         O 42 -- Sn 5              0.34        2.11187
         O 10 -- Sn 2              0.34        2.11207
         O 39 -- Sn 1              0.34        2.11207
         O 35 -- Zr 2              0.41        2.11228
         O 28 -- Zr 4              0.41        2.11228
         O 26 -- Sn 8              0.34        2.11246
         O 36 -- Sn 8              0.34        2.11246
         O 39 -- Sn 4              0.33        2.11360
         O 10 -- Sn 4              0.33        2.11360
         O 35 -- Zr 8              0.41        2.11362
         O 28 -- Zr 6              0.41        2.11362
         O 51 -- Sn 2              0.34        2.11365
         O 49 -- Sn 1              0.34        2.11365
         O 21 -- Zr 7              0.42        2.11450
         O 33 -- Zr 7              0.42        2.11450
         O 21 -- Zr 5              0.42        2.11472
         O 33 -- Zr 3              0.42        2.11472
         O 32 -- Zr 7              0.46        2.11584
         O 9  -- Sn 3              0.33        2.11585
         O 13 -- Sn 6              0.33        2.11585
         O 46 -- Zr 4              0.41        2.11635
         O 55 -- Zr 2              0.41        2.11635
         O 13 -- Sn 5              0.34        2.11645
         O 9  -- Sn 7              0.34        2.11645
         O 55 -- Zr 5              0.41        2.11654
         O 46 -- Zr 3              0.41        2.11654
         O 12 -- Zr 5              0.45        2.11710
         O 40 -- Zr 3              0.45        2.11710
         O 24 -- Sn 7              0.34        2.11718
         O 25 -- Sn 5              0.34        2.11718
         O 52 -- Zr 1              0.43        2.11742
         O 50 -- Zr 1              0.43        2.11742
         O 48 -- Zr 1              0.43        2.11829
         O 25 -- Sn 4              0.33        2.11880
         O 24 -- Sn 4              0.33        2.11880
         O 23 -- Sn 3              0.33        2.11885
         O 34 -- Sn 6              0.33        2.11885
         O 11 -- Zr 7              0.43        2.11896
         O 15 -- Zr 7              0.43        2.11896
         O 53 -- Zr 3              0.42        2.11989
         O 53 -- Zr 5              0.42        2.11989
         O 45 -- Zr 1              0.43        2.11998
         O 56 -- Zr 1              0.43        2.11998
         O 11 -- Zr 6              0.42        2.12028
         O 15 -- Zr 8              0.42        2.12028
         O 29 -- Zr 4              0.45        2.12043
         O 38 -- Zr 2              0.45        2.12043
         O 34 -- Sn 1              0.33        2.12044
         O 23 -- Sn 2              0.33        2.12044
         O 44 -- Zr 3              0.44        2.12073
         O 18 -- Zr 5              0.44        2.12073
         O 37 -- Zr 6              0.45        2.12115
         O 31 -- Zr 8              0.45        2.12115
         O 43 -- Zr 2              0.45        2.12150
         O 20 -- Zr 4              0.45        2.12150
         O 19 -- Zr 6              0.43        2.12168
         O 19 -- Zr 8              0.43        2.12168
         O 14 -- Zr 4              0.45        2.12227
         O 42 -- Zr 2              0.45        2.12227
         O 54 -- Zr 1              0.44        2.12429
         O 49 -- Zr 4              0.45        2.12698
         O 51 -- Zr 2              0.45        2.12698
         O 36 -- Zr 3              0.45        2.12870
         O 26 -- Zr 5              0.45        2.12870
         O 48 -- Zr 7              0.43        2.12900
         O 56 -- Zr 6              0.43        2.13020
         O 45 -- Zr 8              0.43        2.13020
         O 1  -- La 1              0.17        2.35652
         O 7  -- La 16             0.17        2.35722
         O 8  -- La 4              0.17        2.35770
         O 5  -- La 6              0.17        2.35770
         O 2  -- La 12             0.17        2.35811
         O 3  -- La 14             0.17        2.35811
         O 4  -- La 9              0.17        2.35860
         O 4  -- La 4              0.18        2.35875
         O 4  -- La 6              0.18        2.35875
         O 7  -- La 7              0.17        2.35912
         O 7  -- La 3              0.17        2.35912
         O 8  -- La 5              0.17        2.35928
         O 5  -- La 2              0.17        2.35928
         O 6  -- La 9              0.17        2.35943
         O 2  -- La 2              0.17        2.35961
         O 3  -- La 5              0.17        2.35961
         O 6  -- La 14             0.18        2.35978
         O 6  -- La 12             0.18        2.35978
         O 2  -- La 13             0.18        2.36005
         O 3  -- La 8              0.18        2.36005
         O 4  -- La 16             0.20        2.36016
         O 5  -- La 8              0.18        2.36072
         O 8  -- La 13             0.18        2.36072
         O 6  -- La 1              0.20        2.36084
         O 1  -- La 15             0.16        2.36096
         O 1  -- La 10             0.16        2.36096
         O 2  -- La 7              0.18        2.36152
         O 3  -- La 3              0.18        2.36152
         O 5  -- La 15             0.18        2.36348
         O 8  -- La 10             0.18        2.36348
         O 1  -- La 11             0.15        2.36696
         O 7  -- La 11             0.16        2.36770
         O 53 -- La 9              0.11        2.65491
         O 55 -- La 10             0.14        2.65914
         O 46 -- La 15             0.14        2.65914
         O 47 -- La 11             0.23        2.66010
         O 19 -- La 9              0.12        2.66117
         O 56 -- La 2              0.14        2.66137
         O 45 -- La 5              0.14        2.66137
         O 30 -- La 11             0.24        2.66310
         O 23 -- La 11             0.24        2.66316
         O 34 -- La 11             0.24        2.66316
         O 15 -- La 12             0.13        2.66489
         O 11 -- La 14             0.13        2.66489
         O 9  -- La 11             0.24        2.66601
         O 13 -- La 11             0.24        2.66601
         O 35 -- La 3              0.13        2.66624
         O 28 -- La 7              0.13        2.66624
         O 28 -- La 16             0.13        2.66736
         O 35 -- La 16             0.13        2.66736
         O 48 -- La 6              0.13        2.66751
         O 48 -- La 4              0.13        2.66751
         O 33 -- La 13             0.14        2.66770
         O 21 -- La 8              0.14        2.66770
         O 33 -- La 4              0.12        2.66786
         O 21 -- La 6              0.12        2.66786
         O 39 -- La 3              0.24        2.67088
         O 10 -- La 7              0.24        2.67088
         O 38 -- La 10             0.19        2.67232
         O 29 -- La 15             0.19        2.67232
         O 25 -- La 15             0.24        2.67259
         O 24 -- La 10             0.24        2.67259
         O 25 -- La 8              0.24        2.67274
         O 24 -- La 13             0.24        2.67274
         O 52 -- La 2              0.18        2.67277
         O 50 -- La 5              0.18        2.67277
         O 39 -- La 8              0.23        2.67291
         O 10 -- La 13             0.23        2.67291
         O 46 -- La 1              0.14        2.67381
         O 55 -- La 1              0.14        2.67381
         O 17 -- La 10             0.23        2.67455
         O 17 -- La 15             0.23        2.67455
         O 51 -- La 14             0.18        2.67493
         O 49 -- La 12             0.18        2.67493
         O 16 -- La 5              0.23        2.67572
         O 41 -- La 2              0.23        2.67572
         O 43 -- La 3              0.19        2.67602
         O 20 -- La 7              0.19        2.67602
         O 53 -- La 1              0.14        2.67613
         O 45 -- La 3              0.14        2.67621
         O 56 -- La 7              0.14        2.67621
         O 16 -- La 14             0.22        2.67622
         O 41 -- La 12             0.22        2.67622
         O 20 -- La 12             0.17        2.67672
         O 43 -- La 14             0.17        2.67672
         O 40 -- La 9              0.16        2.67710
         O 12 -- La 9              0.16        2.67710
         O 52 -- La 6              0.17        2.67723
         O 50 -- La 4              0.17        2.67723
         O 9  -- La 10             0.24        2.67817
         O 13 -- La 15             0.24        2.67817
         O 44 -- La 13             0.19        2.67818
         O 18 -- La 8              0.19        2.67818
         O 27 -- La 12             0.18        2.67830
         O 22 -- La 14             0.18        2.67830
         O 15 -- La 13             0.13        2.67841
         O 11 -- La 8              0.13        2.67841
         O 54 -- La 3              0.18        2.67869
         O 54 -- La 7              0.18        2.67869
         O 14 -- La 16             0.18        2.67877
         O 42 -- La 16             0.18        2.67877
         O 44 -- La 2              0.17        2.67891
         O 18 -- La 5              0.17        2.67891
         O 19 -- La 16             0.13        2.67940
         O 40 -- La 4              0.18        2.67978
         O 12 -- La 6              0.18        2.67978
         O 23 -- La 7              0.25        2.67998
         O 34 -- La 3              0.25        2.67998
         O 14 -- La 6              0.17        2.68018
         O 42 -- La 4              0.17        2.68018
         O 37 -- La 2              0.17        2.68020
         O 31 -- La 5              0.17        2.68020
         O 37 -- La 8              0.18        2.68104
         O 31 -- La 13             0.18        2.68104
         O 32 -- La 12             0.17        2.68122
         O 32 -- La 14             0.17        2.68122
         O 22 -- La 9              0.16        2.68157
         O 27 -- La 9              0.16        2.68157
         O 29 -- La 6              0.17        2.68237
         O 38 -- La 4              0.17        2.68237
         O 36 -- La 15             0.19        2.68255
         O 26 -- La 10             0.19        2.68255
         O 36 -- La 2              0.19        2.68333
         O 26 -- La 5              0.19        2.68333
         O 30 -- La 16             0.23        2.68504
         O 51 -- La 1              0.20        2.68531
         O 49 -- La 1              0.20        2.68531
         O 47 -- La 1              0.24        2.68615
         O 27 -- O 40             -0.06        2.79320
         O 12 -- O 22             -0.06        2.79320
         O 16 -- O 51             -0.06        2.79416
         O 41 -- O 49             -0.06        2.79416
         O 42 -- O 50             -0.06        2.79423
         O 14 -- O 52             -0.06        2.79423
         O 20 -- O 27             -0.06        2.79571
         O 22 -- O 43             -0.06        2.79571
         O 44 -- O 52             -0.06        2.79587
         O 18 -- O 50             -0.06        2.79587
         O 16 -- O 31             -0.06        2.79690
         O 37 -- O 41             -0.06        2.79690
         O 12 -- O 29             -0.06        2.79741
         O 38 -- O 40             -0.06        2.79741
         O 39 -- O 54             -0.06        2.79781
         O 10 -- O 54             -0.06        2.79781
         O 17 -- O 25             -0.05        2.79826
         O 17 -- O 24             -0.05        2.79826
         O 23 -- O 47             -0.05        2.79845
         O 34 -- O 47             -0.05        2.79845
         O 16 -- O 26             -0.06        2.79935
         O 36 -- O 41             -0.06        2.79935
         O 9  -- O 30             -0.05        2.79984
         O 13 -- O 30             -0.05        2.79984
         O 10 -- O 31             -0.06        2.80022
         O 37 -- O 39             -0.06        2.80022
         O 16 -- O 32             -0.06        2.80148
         O 32 -- O 41             -0.06        2.80148
         O 25 -- O 39             -0.05        2.80550
         O 10 -- O 24             -0.05        2.80550
         O 18 -- O 25             -0.06        2.80694
         O 24 -- O 44             -0.06        2.80694
         O 14 -- O 30             -0.06        2.80745
         O 30 -- O 42             -0.05        2.80745
         O 34 -- O 39             -0.05        2.80898
         O 10 -- O 23             -0.05        2.80898
         O 34 -- O 43             -0.05        2.80921
         O 20 -- O 23             -0.05        2.80921
         O 9  -- O 38             -0.05        2.80923
         O 13 -- O 29             -0.05        2.80923
         O 9  -- O 23             -0.05        2.80937
         O 13 -- O 34             -0.05        2.80937
         O 13 -- O 25             -0.05        2.80941
         O 9  -- O 24             -0.05        2.80941
         O 17 -- O 26             -0.05        2.81020
         O 17 -- O 36             -0.05        2.81020
         O 47 -- O 51             -0.05        2.81032
         O 47 -- O 49             -0.05        2.81032
         O 12 -- O 53             -0.03        2.81269
         O 40 -- O 53             -0.03        2.81269
         O 33 -- O 48             -0.03        2.81516
         O 21 -- O 48             -0.03        2.81516
         O 19 -- O 27             -0.03        2.81632
         O 19 -- O 22             -0.03        2.81632
         O 52 -- O 56             -0.03        2.81757
         O 45 -- O 50             -0.03        2.81757
         O 35 -- O 42             -0.03        2.81818
         O 14 -- O 28             -0.03        2.81818
         O 12 -- O 21             -0.03        2.81830
         O 33 -- O 40             -0.03        2.81830
         O 29 -- O 46             -0.03        2.81833
         O 38 -- O 55             -0.03        2.81833
         O 15 -- O 27             -0.03        2.81946
         O 11 -- O 22             -0.03        2.81946
         O 35 -- O 45             -0.03        2.81986
         O 28 -- O 56             -0.03        2.81986
         O 20 -- O 28             -0.03        2.82036
         O 35 -- O 43             -0.03        2.82036
         O 48 -- O 52             -0.03        2.82058
         O 48 -- O 50             -0.03        2.82058
         O 15 -- O 33             -0.03        2.82143
         O 11 -- O 21             -0.03        2.82143
         O 19 -- O 28             -0.03        2.82197
         O 19 -- O 35             -0.03        2.82197
         O 33 -- O 44             -0.03        2.82222
         O 18 -- O 21             -0.03        2.82222
         O 37 -- O 56             -0.03        2.82389
         O 31 -- O 45             -0.03        2.82389
         O 53 -- O 55             -0.03        2.82512
         O 46 -- O 53             -0.03        2.82512
         O 11 -- O 32             -0.03        2.82659
         O 15 -- O 32             -0.03        2.82659
         O 36 -- O 46             -0.03        2.82757
         O 26 -- O 55             -0.03        2.82757
         O 46 -- O 49             -0.03        2.82988
         O 51 -- O 55             -0.03        2.82988
         O 20 -- O 49             -0.03        2.83087
         O 43 -- O 51             -0.03        2.83087
         O 45 -- O 54             -0.03        2.83127
         O 54 -- O 56             -0.03        2.83127
         O 11 -- O 37             -0.03        2.83158
         O 15 -- O 31             -0.03        2.83158
         O 38 -- O 42             -0.03        2.83320
         O 14 -- O 29             -0.03        2.83320
         O 36 -- O 44             -0.03        2.83641
         O 18 -- O 26             -0.03        2.83641
============================================================
 

Writing analysis data to 074.castep_bin

Writing model to 074.check
 
 A BibTeX formatted list of references used in this run has been written to 
 074.bib
 
Initialisation time =     54.63 s
Calculation time    =  33962.05 s
Finalisation time   =     55.25 s
Total time          =  34071.93 s
Peak Memory Use     = 2839744 kB
  
Overall parallel efficiency rating: Good (76%)                                  
  
Data was distributed by:-
G-vector (4-way); efficiency rating: Good (78%)                                 
k-point (14-way); efficiency rating: Excellent (97%)                            
