 +-------------------------------------------------+
 |                                                 |
 |      CCC   AA    SSS  TTTTT  EEEEE  PPPP        |
 |     C     A  A  S       T    E      P   P       |
 |     C     AAAA   SS     T    EEE    PPPP        |
 |     C     A  A     S    T    E      P           |
 |      CCC  A  A  SSS     T    EEEEE  P           |
 |                                                 |
 +-------------------------------------------------+
 |                                                 |
 | Welcome to Academic Release CASTEP version 16.11|          
 | Ab Initio Total Energy Program                  |
 |                                                 |
 | Authors:                                        |
 | M. Segall, M. Probert, C. Pickard, P. Hasnip,   |
 | S. Clark, K. Refson, J. R. Yates, M. Payne      |
 |                                                 |
 | Contributors:                                   |
 | P. Lindan, P. Haynes, J. White, V. Milman,      |
 | N. Govind, M. Gibson, P. Tulip, V. Cocula,      |
 | B. Montanari, D. Quigley, M. Glover,            |
 | L. Bernasconi, A. Perlov, M. Plummer,           |
 | E. McNellis, J. Meyer, J. Gale, D. Jochym       |
 | J. Aarons, B. Walker, R. Gillen, D. Jones       |
 | T. Green, I. J. Bush, C. J. Armstrong,          |
 | E. J. Higgins, E. L. Brown, M. S. McFly         |
 |                                                 |
 | Copyright (c) 2000 - 2015                       |
 |                                                 |
 |     Distributed under the terms of an           |
 |     Agreement between the United Kingdom        |
 |     Car-Parrinello (UKCP) Consortium,           |
 |     Daresbury Laboratory and Accelrys, Inc.     |
 |                                                 |
 | Please cite                                     |
 |                                                 |
 |     "First principles methods using CASTEP"     |
 |                                                 |
 |         Zeitschrift fuer Kristallographie       |
 |           220(5-6) pp. 567-570 (2005)           |
 |                                                 |
 | S. J. Clark, M. D. Segall, C. J. Pickard,       |
 | P. J. Hasnip, M. J. Probert, K. Refson,         |
 | M. C. Payne                                     |
 |                                                 |
 |       in all publications arising from          |
 |              your use of CASTEP                 |
 |                                                 |
 +-------------------------------------------------+
 
 
 Compiled for linux_x86_64_ifort16 on Sat, 23 Jul 2016 23:44:54 +0100
 from code version 
 203e84763863+ Castep161_branch Fri, 04 Mar 2016 19:21:07 +0000
 Compiler: Intel Fortran 16.0.3.210; Optimisation: fast
 MATHLIBS: Intel MKL(11.3.3) (LAPACK version 3.6.0)
 FFT Lib : mkl
 Fundamental constants values: CODATA 2010
 
 Run started: Tue, 01 May 2018 05:57:43 +0100
 +-------------------------------------------------+
 |                                                 |
 |           N   N    M   M    RRRR                |
 |           NN  N    MM MM    R   R               |
 |           N N N    M M M    RRRR                |
 |           N  NN    M   M    R  R                |
 |           N   N    M   M    R   R               |
 |                                                 |
 +-------------------------------------------------+
 |                                                 |
 | Welcome to Materials Studio CASTEP-NMR          |
 |                                                 |
 | Authors:                                        |
 | J.R. Yates, C.J. Pickard, F. Mauri              |
 |                                                 |
 | Contributors:                                   |
 | T.F.G. Green, S.A. Joyce                        |
 |                                                 |
 | Copyright (c) 2004 - 2015                       |
 |                                                 |
 | Please cite the appropriate publications in all |
 | work arising from your use of CASTEP NMR.       |
 |                                                 |
 | For NMR Shielding Tensors cite:                 |
 |    "All-electron magnetic response with         |
 |    pseudopotentials: NMR chemical shifts",      |
 |    C. J. Pickard, F. Mauri;                     |
 |    Physical Review B63 245101 (2001), and       |
 |                                                 |
 |    "Calculation of NMR Chemical Shifts          |
 |    for extended systems using                   |
 |    Ultrasoft Pseudopotentials",                 |
 |    J. R. Yates, C. J. Pickard and F. Mauri      |
 |    Physical Review B76 024401 (2007)            |
 |                                                 |
 | For Electric Field Gradients cite:              |
 |   "Accurate First Principles Prediction of 17O  |
 |    NMR Parameters in SiO2: Assignment of the    |
 |    Zeolite Ferrierite Spectrum"                 |
 |    M. Profeta, F. Mauri and C. J. Pickard       |
 |    J. Amer. Chem. Soc. 125 541 (2003)           |
 |                                                 |
 | For Spin-Spin (J) Couplings cite:               |
 |   "A first principles theory of NMR J-coupling  |
 |   in solid-state systems"                       |
 |   S.A. Joyce, J.R. Yates, C.J. Pickard, F. Mauri|
 |   J. Chem. Phys. 127 204107 (2007)              |
 |                                                 |
 |   "Relativistic NMR J-coupling with ultrasoft   |
 |   pseudopotentials and the zeroth-order regular |
 |   approximation"                                |
 |   T.F.G. Green and J.R. Yates                   |
 |   J. Chem. Phys. 140 234106 (2014)              |
 |                                                 |
 +-------------------------------------------------+
 
 
 Atomic calculation performed for O: 1s2 2s2 2p4
 
 Converged in 44 iterations to an ae energy of -2040.855 eV
 
 
 Atomic calculation performed for O: 1s2 2s2 2p4
 
 Exceeded max iterations: converged to 0.000000062 eV
 
   ============================================================                
   | Pseudopotential Report - Date of generation  1-05-2018   |                
   ------------------------------------------------------------                
   | Element: O Ionic charge:  6.00 Level of theory: PBE      |                
   | Atomic Solver: ZORA (scalar)                             |                
   |                                                          |                
   |               Reference Electronic Structure             |                
   |         Orbital         Occupation         Energy        |                
   |            2s              2.000           -0.881        |                
   |            2p              4.000           -0.332        |                
   |                                                          |                
   |                 Pseudopotential Definition               |                
   |        Beta     l      e      Rc     scheme   norm       |                
   |          1      0   -0.881   1.100     qc      0         |                
   |          2      0    0.250   1.100     qc      0         |                
   |          3      1   -0.332   1.100     qc      0         |                
   |          4      1    0.250   1.100     qc      0         |                
   |         loc     2    0.000   1.100     pn      0         |                
   |                                                          |                
   | Augmentation charge Rinner = 0.769                       |                
   | Partial core correction Rc = 0.769                       |                
   ------------------------------------------------------------                
   | "2|1.1|15|18|20|20:21(qc=7)"                             |                
   ------------------------------------------------------------                
   |      Author: Chris J. Pickard, Cambridge University      |                
   ============================================================                
 
 Atomic calculation performed for Zr: 1s2 2s2 2p6 3s2 3p6 3d10 4s2 4p6 4d2 5s2
 
 Converged in 53 iterations to an ae energy of -97719.888 eV
 
 
 Atomic calculation performed for Zr: 1s2 2s2 2p6 3s2 3p6 3d10 4s2 4p6 4d2 5s2
 
 Exceeded max iterations: converged to 0.000000970 eV
 
 Warning: ion_atom_descreen_psp: negative charge density encountered
   ============================================================                
   | Pseudopotential Report - Date of generation  1-05-2018   |                
   ------------------------------------------------------------                
   | Element: Zr Ionic charge: 12.00 Level of theory: PBE     |                
   | Atomic Solver: ZORA (scalar)                             |                
   |                                                          |                
   |               Reference Electronic Structure             |                
   |         Orbital         Occupation         Energy        |                
   |            4s              2.000           -2.003        |                
   |            4p              6.000           -1.193        |                
   |            5s              2.000           -0.163        |                
   |            4d              2.000           -0.132        |                
   |                                                          |                
   |                 Pseudopotential Definition               |                
   |        Beta     l      e      Rc     scheme   norm       |                
   |          1      0   -2.003   2.105     qc      0         |                
   |          2      0   -0.163   2.105     qc      0         |                
   |          3      0    0.250   2.105     qc      0         |                
   |          4      1   -1.193   2.105     qc      0         |                
   |          5      1    0.250   2.105     qc      0         |                
   |          6      2   -0.132   2.105     qc      0         |                
   |          7      2    0.250   2.105     qc      0         |                
   |         loc     3    0.000   2.105     pn      0         |                
   |                                                          |                
   | Augmentation charge Rinner = 1.471                       |                
   | Partial core correction Rc = 1.471                       |                
   ------------------------------------------------------------                
   | "3|2.1|7|8|9|40U:50:41:42"                               |                
   ------------------------------------------------------------                
   |      Author: Chris J. Pickard, Cambridge University      |                
   ============================================================                
 
 Atomic calculation performed for Sn:
 1s2 2s2 2p6 3s2 3p6 3d10 4s2 4p6 4d10 5s2 5p2
 
 Converged in 58 iterations to an ae energy of -167539.320 eV
 
 
 Atomic calculation performed for Sn:
 1s2 2s2 2p6 3s2 3p6 3d10 4s2 4p6 4d10 5s2 5p2
 
 Exceeded max iterations: converged to 0.000001154 eV
 
   ============================================================                
   | Pseudopotential Report - Date of generation  1-05-2018   |                
   ------------------------------------------------------------                
   | Element: Sn Ionic charge: 14.00 Level of theory: PBE     |                
   | Atomic Solver: ZORA (scalar)                             |                
   |                                                          |                
   |               Reference Electronic Structure             |                
   |         Orbital         Occupation         Energy        |                
   |            4d             10.000           -0.950        |                
   |            5s              2.000           -0.388        |                
   |            5p              2.000           -0.136        |                
   |                                                          |                
   |                 Pseudopotential Definition               |                
   |        Beta     l      e      Rc     scheme   norm       |                
   |          1      0   -0.388   2.199     qc      0         |                
   |          2      0    0.250   2.199     qc      0         |                
   |          3      1   -0.136   2.199     qc      0         |                
   |          4      1    0.250   2.199     qc      0         |                
   |          5      2   -0.950   2.199     qc      0         |                
   |          6      2    0.250   2.199     qc      0         |                
   |         loc     3    0.000   2.199     pn      0         |                
   |                                                          |                
   | Augmentation charge Rinner = 1.537                       |                
   | Partial core correction Rc = 1.537                       |                
   ------------------------------------------------------------                
   | "3|2.2|7|8|9|50:51:42"                                   |                
   ------------------------------------------------------------                
   |      Author: Chris J. Pickard, Cambridge University      |                
   ============================================================                
 
 Atomic calculation performed for La:
 1s2 2s2 2p6 3s2 3p6 3d10 4s2 4p6 4d10 5s2 5p6 5d1 6s2
 
 Converged in 56 iterations to an ae energy of -230121.495 eV
 
 
 Atomic calculation performed for La:
 1s2 2s2 2p6 3s2 3p6 3d10 4s2 4p6 4d10 5s2 5p6 5d1 6s2
 
 Exceeded max iterations: converged to 0.000000907 eV
 
 Warning: ion_atom_descreen_psp: negative charge density encountered
   ============================================================                
   | Pseudopotential Report - Date of generation  1-05-2018   |                
   ------------------------------------------------------------                
   | Element: La Ionic charge: 11.00 Level of theory: PBE     |                
   | Atomic Solver: ZORA (scalar)                             |                
   |                                                          |                
   |               Reference Electronic Structure             |                
   |         Orbital         Occupation         Energy        |                
   |            5s              2.000           -1.430        |                
   |            5p              6.000           -0.823        |                
   |            6s              2.000           -0.135        |                
   |            5d              1.000           -0.114        |                
   |                                                          |                
   |                 Pseudopotential Definition               |                
   |        Beta     l      e      Rc     scheme   norm       |                
   |          1      0   -1.430   2.298     qc      0         |                
   |          2      0   -0.135   2.298     qc      0         |                
   |          3      0    0.250   2.298     qc      0         |                
   |          4      1   -0.823   2.298     qc      0         |                
   |          5      1    0.250   2.298     qc      0         |                
   |          6      2   -0.114   2.298     qc      0         |                
   |          7      2    0.250   2.298     qc      0         |                
   |         loc     2    0.000   2.298     pn      0         |                
   |                                                          |                
   | Augmentation charge Rinner = 1.606                       |                
   | Partial core correction Rc = 1.606                       |                
   ------------------------------------------------------------                
   | "2|2.3|5|6|7|50U:60:51:52(qc=4.5)"                       |                
   ------------------------------------------------------------                
   |      Author: Chris J. Pickard, Cambridge University      |                
   ============================================================                
 
 Pseudo atomic calculation performed for O 2s2 2p4
 
 Converged in 39 iterations to a total energy of -432.6554 eV
 
 
 Pseudo atomic calculation performed for Zr 4s2 4p6 4d2 5s2
 
 Converged in 38 iterations to a total energy of -1285.4931 eV
 
 
 Pseudo atomic calculation performed for Sn 4d10 5s2 5p2
 
 Converged in 48 iterations to a total energy of -2044.5414 eV
 
 
 Pseudo atomic calculation performed for La 5s2 5p6 5d1 6s2
 
 Converged in 34 iterations to a total energy of -968.0372 eV
 
 Calculation parallelised over 56 processes.
 Data is distributed by G-vector(4-way) and k-point(14-way)

 ************************************ Title ************************************
 nmr testing

 ***************************** General Parameters ******************************
  
 output verbosity                               : normal  (1)
 write checkpoint data to                       : 077.check
 type of calculation                            : Magnetic Resonance
 stress calculation                             : on
 density difference calculation                 : off
 electron localisation func (ELF) calculation   : off
 Hirshfeld analysis                             : off
 unlimited duration calculation
 timing information                             : on
 memory usage estimate                          : on
 write final potential to formatted file        : off
 write final density to formatted file          : off
 write structure in CIF formatted file          : on
 write structure in CELL formatted file         : on
 write BibTeX reference list                    : on
 write OTFG pseudopotential files               : on
 checkpoint writing                             : both castep_bin and check files
  
 output         length unit                     : A
 output           mass unit                     : amu
 output           time unit                     : ps
 output         charge unit                     : e
 output           spin unit                     : hbar/2
 output         energy unit                     : eV
 output          force unit                     : eV/A
 output       velocity unit                     : A/ps
 output       pressure unit                     : GPa
 output     inv_length unit                     : 1/A
 output      frequency unit                     : cm-1
 output force constant unit                     : eV/A**2
 output         volume unit                     : A**3
 output   IR intensity unit                     : (D/A)**2/amu
 output         dipole unit                     : D
 output         efield unit                     : eV/A/e
 output        entropy unit                     : J/mol/K
  
 wavefunctions paging                           : none
 random number generator seed                   : randomised (55744199)
 data distribution                              : optimal for this architecture
 optimization strategy                          : maximize speed(+++)

 *********************** Exchange-Correlation Parameters ***********************
  
 using functional                               : Perdew Burke Ernzerhof
 relativistic treatment                         : ZORA
 DFT+D: Semi-empirical dispersion correction    : off

 ************************* Pseudopotential Parameters **************************
  
 pseudopotential representation                 : reciprocal space
 <beta|phi> representation                      : reciprocal space
 spin-orbit coupling                            : off

 **************************** Basis Set Parameters *****************************
  
 plane wave basis set cut-off                   :   816.3416   eV
 size of standard grid                          :     1.7500
 size of   fine   gmax                          :    25.6161   1/A
 finite basis set correction                    : automatic
 number of sample energies                      :          3
           sample  spacing                      :     5.0000   eV

 **************************** Electronic Parameters ****************************
  
 number of  electrons                           :  720.0    
 net charge of system                           :  0.000    
 treating system as non-spin-polarized
 number of bands                                :        432

 ********************* Electronic Minimization Parameters **********************
  
 Method: Treating system as metallic with density mixing treatment of electrons,
         and number of  SD  steps               :          1
         and number of  CG  steps               :          4
  
 total energy / atom convergence tol.           : 0.1000E-08   eV
 eigen-energy convergence tolerance             : 0.2444E-09   eV
 max force / atom convergence tol.              : ignored
 convergence tolerance window                   :          3   cycles
 max. number of SCF cycles                      :         50
 number of fixed-spin iterations                :         10
 smearing scheme                                : Gaussian
 smearing width                                 : 0.2000       eV
 Fermi energy convergence tolerance             : 0.2721E-13   eV
 periodic dipole correction                     : NONE

 ************************** Density Mixing Parameters **************************
  
 density-mixing scheme                          : Broyden
 max. length of mixing history                  :         20
 charge density mixing amplitude                : 0.8000    
 cut-off energy for mixing                      :  816.3       eV

 *********************** Population Analysis Parameters ************************
  
 Population analysis with cutoff                :  3.000       A

 ************************ Magnetic Resonance Parameters ************************
  
 Magnetic Resonance Property                    : Chemical Shielding + EFG
 Position Operator Method                       : crystal
 max. number of MagRes CG steps                 :        250
 convergence tolerance window                   :          2   cycles
 energy convergence tolerance                   : 0.1000E-11   eV
 band convergence tolerance                     : 0.1000E-08   eV

 *******************************************************************************
  
 
                           -------------------------------
                                      Unit Cell
                           -------------------------------
        Real Lattice(A)                      Reciprocal Lattice(1/A)
  10.9028598   0.0091066  -0.0034624        0.5762883  -0.0004812   0.0001827
   0.0091035  10.8995999  -0.0090488       -0.0004813   0.5764610   0.0004784
  -0.0034629  -0.0090506  10.9018998        0.0001826   0.0004783   0.5763390
 
                       Lattice parameters(A)       Cell Angles
                    a =   10.902864          alpha =   90.095148
                    b =   10.899607          beta  =   90.036434
                    c =   10.901904          gamma =   89.904274
 
                       Current cell volume = 1295.545059       A**3
 
                           -------------------------------
                                     Cell Contents
                           -------------------------------
                         Total number of ions in cell =   88
                      Total number of species in cell =    4
                        Max number of any one species =   56
 
            xxxxxxxxxxxxxxxxxxxxxxxxxxxxxxxxxxxxxxxxxxxxxxxxxxxxxxxxxxxx
            x  Element    Atom        Fractional coordinates of atoms  x
            x            Number           u          v          w      x
            x----------------------------------------------------------x
            x  O            1         0.125078   0.124770   0.125113   x 
            x  O            2         0.625052   0.124971   0.624776   x 
            x  O            3         0.125078   0.624770   0.625113   x 
            x  O            4         0.625052   0.624971   0.124776   x 
            x  O            5         0.874707   0.374910   0.375170   x 
            x  O            6         0.874707   0.874910   0.875170   x 
            x  O            7         0.375242   0.374768   0.874866   x 
            x  O            8         0.375242   0.874768   0.374866   x 
            x  O            9         0.421370   0.126884   0.124812   x 
            x  O           10         0.330019   0.124060   0.624795   x 
            x  O           11         0.829920   0.624830   0.624931   x 
            x  O           12         0.919826   0.624859   0.124987   x 
            x  O           13         0.125601   0.419139   0.124369   x 
            x  O           14         0.624214   0.329514   0.125458   x 
            x  O           15         0.624214   0.829514   0.625458   x 
            x  O           16         0.125601   0.919139   0.624369   x 
            x  O           17         0.124911   0.124127   0.420377   x 
            x  O           18         0.125248   0.625341   0.330265   x 
            x  O           19         0.624743   0.626176   0.828757   x 
            x  O           20         0.625502   0.124569   0.919633   x 
            x  O           21         0.875735   0.670525   0.374073   x 
            x  O           22         0.875007   0.579038   0.876686   x 
            x  O           23         0.373312   0.079007   0.874988   x 
            x  O           24         0.375434   0.170781   0.374721   x 
            x  O           25         0.170169   0.375790   0.374313   x 
            x  O           26         0.080622   0.874321   0.375752   x 
            x  O           27         0.579349   0.874643   0.874384   x 
            x  O           28         0.669386   0.375804   0.875725   x 
            x  O           29         0.875446   0.376079   0.079548   x 
            x  O           30         0.374261   0.375348   0.169557   x 
            x  O           31         0.374261   0.875348   0.669557   x 
            x  O           32         0.875446   0.876079   0.579548   x 
            x  O           33         0.669386   0.875804   0.375725   x 
            x  O           34         0.080622   0.374321   0.875752   x 
            x  O           35         0.375434   0.670781   0.874721   x 
            x  O           36         0.875007   0.079038   0.376686   x 
            x  O           37         0.875396   0.373492   0.670740   x 
            x  O           38         0.374520   0.875480   0.080508   x 
            x  O           39         0.124580   0.329964   0.625759   x 
            x  O           40         0.625895   0.919401   0.124120   x 
            x  O           41         0.919826   0.124859   0.624987   x 
            x  O           42         0.330019   0.624060   0.124795   x 
            x  O           43         0.124911   0.624127   0.920377   x 
            x  O           44         0.624743   0.126176   0.328757   x 
            x  O           45         0.421370   0.626884   0.624812   x 
            x  O           46         0.829920   0.124830   0.124931   x 
            x  O           47         0.125248   0.125341   0.830265   x 
            x  O           48         0.625502   0.624569   0.419633   x 
            x  O           49         0.875735   0.170525   0.874073   x 
            x  O           50         0.373312   0.579007   0.374988   x 
            x  O           51         0.170169   0.875790   0.874313   x 
            x  O           52         0.579349   0.374643   0.374384   x 
            x  O           53         0.875396   0.873492   0.170740   x 
            x  O           54         0.374520   0.375480   0.580508   x 
            x  O           55         0.124580   0.829964   0.125759   x 
            x  O           56         0.625895   0.419401   0.624120   x 
            x  Zr           1         0.499897   0.499944   0.499830   x 
            x  Zr           2         0.249840   0.750120   0.000193   x 
            x  Zr           3         0.750145   0.999741   0.250764   x 
            x  Zr           4         0.750225   0.250788   0.999735   x 
            x  Zr           5         0.499897  -0.000056   0.999830   x 
            x  Zr           6         0.249840   0.250120   0.500193   x 
            x  Zr           7         0.750145   0.499741   0.750764   x 
            x  Zr           8         0.750225   0.750788   0.499735   x 
            x  Sn           1         0.000512   0.249383   0.749707   x 
            x  Sn           2         0.249341   0.000549   0.749173   x 
            x  Sn           3         0.000512   0.749383   0.249707   x 
            x  Sn           4         0.249341   0.500549   0.249173   x 
            x  Sn           5         0.000652   0.500255   0.000672   x 
            x  Sn           6         0.499295   0.251125   0.250389   x 
            x  Sn           7         0.499295   0.751125   0.750389   x 
            x  Sn           8         0.000652   0.000255   0.500672   x 
            x  La           1         0.999595   0.999909   0.000446   x 
            x  La           2         0.749757   0.250228   0.500195   x 
            x  La           3         0.250072   0.499693   0.749975   x 
            x  La           4         0.500292   0.750263   0.249695   x 
            x  La           5         0.250340   0.749573   0.499939   x 
            x  La           6         0.749670   0.500237   0.250411   x 
            x  La           7         0.500292   0.250263   0.749695   x 
            x  La           8         0.999595   0.499909   0.500446   x 
            x  La           9         0.749757   0.750228   0.000195   x 
            x  La          10         0.250072   0.999693   0.249975   x 
            x  La          11         0.250340   0.249573   0.999939   x 
            x  La          12         0.749670   0.000237   0.750411   x 
            x  La          13         0.500187   0.000058   0.499581   x 
            x  La          14         0.999637   0.749543   0.750114   x 
            x  La          15         0.999637   0.249543   0.250114   x 
            x  La          16         0.500187   0.500058   0.999581   x 
            xxxxxxxxxxxxxxxxxxxxxxxxxxxxxxxxxxxxxxxxxxxxxxxxxxxxxxxxxxxx
 
 
                         No user defined ionic velocities
 
                           -------------------------------
                                   Details of Species
                           -------------------------------
 
                               Mass of species in AMU
                                    O   15.9994000
                                    Zr   91.2240000
                                    Sn  118.7100000
                                    La  138.9055000
 
                          Electric Quadrupole Moment (Barn)
                                    O   -0.0255800 Isotope 17
                                    Zr   -0.1760000 Isotope 91
                                    Sn    1.0000000 No Isotope Defined
                                    La    0.2000000 Isotope139
 
                          Files used for pseudopotentials:
                                    O 2|1.1|15|18|20|20:21(qc=7)
                                    Zr 3|2.1|7|8|9|40U:50:41:42
                                    Sn 3|2.2|7|8|9|50:51:42
                                    La 2|2.3|5|6|7|50U:60:51:52(qc=4.5)
 
                           -------------------------------
                              k-Points For BZ Sampling
                           -------------------------------
                       MP grid size for SCF calculation is  3  3  3
                            with an offset of   0.000  0.000  0.000
                       Number of kpoints used =            14
 
                           -------------------------------
                               Symmetry and Constraints
                           -------------------------------
 
                      Cell is a supercell containing 2 primitive cells
                      Maximum deviation from symmetry =  0.00000         ANG
 
         There are no symmetry operations specified or generated for this cell
                      Number of ionic constraints     =           3
                      Point group of crystal =     1: C1, 1, 1
                      Space group of crystal =     1: P1, P 1
 
 
                         Centre of mass is constrained
             Set iprint > 1 for details of linear ionic constraints
 
                         Number of cell constraints= 0
                         Cell constraints are:  1 2 3 4 5 6
 
                         External pressure/stress (GPa)
                          0.00000   0.00000   0.00000
                                    0.00000   0.00000
                                              0.00000
  
+---------------- MEMORY AND SCRATCH DISK ESTIMATES PER PROCESS --------------+
|                                                     Memory          Disk    |
| Baseline code, static data and system overhead      322.0 MB         0.0 MB |
| BLAS internal memory storage                          0.0 MB         0.0 MB |
| Model and support data                             1319.2 MB         0.0 MB |
| Electronic energy minimisation requirements         381.8 MB         0.0 MB |
| Force calculation requirements                       24.1 MB         0.0 MB |
| Stress calculation requirements                      28.3 MB         0.0 MB |
|                                               ----------------------------- |
| Approx. total storage required per process         2023.0 MB         0.0 MB |
|                                                                             |
| Requirements will fluctuate during execution and may exceed these estimates |
+-----------------------------------------------------------------------------+
Calculating finite basis set correction with  3 cut-off energies.
Calculating total energy with cut-off of  806.342eV.
------------------------------------------------------------------------ <-- SCF
SCF loop      Energy           Fermi           Energy gain       Timer   <-- SCF
                               energy          per atom          (sec)   <-- SCF
------------------------------------------------------------------------ <-- SCF
Initial  -5.62475753E+004  0.00000000E+000                        74.65  <-- SCF
      1  -6.45247907E+004  7.58285222E+000   9.40592650E+001     211.94  <-- SCF
      2  -6.70872568E+004  6.88336388E+000   2.91189338E+001     305.52  <-- SCF
      3  -6.71703980E+004  6.49468642E+000   9.44785982E-001     409.26  <-- SCF
      4  -6.71644475E+004  7.62211101E+000  -6.76194093E-002     536.64  <-- SCF
      5  -6.70611684E+004  7.02110750E+000  -1.17362614E+000     661.97  <-- SCF
      6  -6.70625793E+004  6.93221887E+000   1.60327914E-002     823.79  <-- SCF
      7  -6.70622559E+004  7.00334189E+000  -3.67475228E-003     957.73  <-- SCF
      8  -6.70623384E+004  7.01074021E+000   9.37337919E-004    1135.05  <-- SCF
      9  -6.70623609E+004  7.01440949E+000   2.56232112E-004    1283.50  <-- SCF
     10  -6.70623607E+004  7.01310873E+000  -2.10203744E-006    1423.67  <-- SCF
     11  -6.70623605E+004  7.01510029E+000  -2.45248986E-006    1565.45  <-- SCF
     12  -6.70623609E+004  7.01565434E+000   3.79649227E-006    1714.18  <-- SCF
     13  -6.70623609E+004  7.01562805E+000   2.99696956E-007    1849.23  <-- SCF
     14  -6.70623609E+004  7.01559518E+000  -1.43728118E-007    1982.71  <-- SCF
     15  -6.70623609E+004  7.01541415E+000  -5.47937051E-008    2125.73  <-- SCF
     16  -6.70623609E+004  7.01531873E+000  -5.67896242E-009    2251.10  <-- SCF
     17  -6.70623609E+004  7.01525988E+000  -1.95345283E-009    2367.23  <-- SCF
     18  -6.70623609E+004  7.01521468E+000  -4.13414290E-010    2465.53  <-- SCF
     19  -6.70623609E+004  7.01518860E+000   2.87421364E-010    2556.54  <-- SCF
------------------------------------------------------------------------ <-- SCF
 
Final energy, E             =  -67062.36086580     eV
Final free energy (E-TS)    =  -67062.36086580     eV
(energies not corrected for finite basis set)
 
NB est. 0K energy (E-0.5TS)      =  -67062.36086580     eV
 
Calculating total energy with cut-off of  811.342eV.
------------------------------------------------------------------------ <-- SCF
SCF loop      Energy           Fermi           Energy gain       Timer   <-- SCF
                               energy          per atom          (sec)   <-- SCF
------------------------------------------------------------------------ <-- SCF
Initial  -6.70623609E+004  0.00000000E+000                      2591.81  <-- SCF
      1  -6.70623633E+004  7.01518215E+000   2.80310025E-005    2702.88  <-- SCF
      2  -6.70623633E+004  7.01518215E+000   2.01644929E-010    2789.87  <-- SCF
      3  -6.70623633E+004  7.01517644E+000   1.63149591E-008    2877.97  <-- SCF
      4  -6.70623633E+004  7.01518585E+000   5.30126488E-010    2965.01  <-- SCF
      5  -6.70623633E+004  7.01518355E+000  -9.88538252E-011    3053.06  <-- SCF
------------------------------------------------------------------------ <-- SCF
 
Final energy, E             =  -67062.36333402     eV
Final free energy (E-TS)    =  -67062.36333402     eV
(energies not corrected for finite basis set)
 
NB est. 0K energy (E-0.5TS)      =  -67062.36333402     eV
 
Calculating total energy with cut-off of  816.342eV.
------------------------------------------------------------------------ <-- SCF
SCF loop      Energy           Fermi           Energy gain       Timer   <-- SCF
                               energy          per atom          (sec)   <-- SCF
------------------------------------------------------------------------ <-- SCF
Initial  -6.70623633E+004  0.00000000E+000                      3088.44  <-- SCF
      1  -6.70623663E+004  7.01518621E+000   3.36143288E-005    3199.14  <-- SCF
      2  -6.70623663E+004  7.01518621E+000   2.04597889E-010    3287.25  <-- SCF
      3  -6.70623663E+004  7.01518005E+000   2.08470484E-008    3375.02  <-- SCF
      4  -6.70623663E+004  7.01518324E+000   6.62025333E-010    3464.79  <-- SCF
      5  -6.70623663E+004  7.01517988E+000  -2.81234211E-012    3552.62  <-- SCF
------------------------------------------------------------------------ <-- SCF
 
Final energy, E             =  -67062.36629399     eV
Final free energy (E-TS)    =  -67062.36629399     eV
(energies not corrected for finite basis set)
 
NB est. 0K energy (E-0.5TS)      =  -67062.36629399     eV
 
 For future reference: finite basis dEtot/dlog(Ecut) =      -0.439652eV
 Total energy corrected for finite basis set =  -67062.366283 eV
 
  =====================================================================
  +       Calculation of Nuclear Magnetic Resonance Parameters        +
  + ================================================================= +
 
  Starting Calculation of Electric Field Gradient Tensors         |<-- EFG
  +---------------- MEMORY AND SCRATCH DISK ESTIMATES PER PROCESS --------------+
  |                                                     Memory          Disk    |
  | Model and support data                             1316.9 MB         0.0 MB |
  | NMR EFG calculation requirements                    367.5 MB         0.0 MB |
  |                                               ----------------------------- |
  | Approx. total storage required per process         1684.4 MB         0.0 MB |
  |                                                                             |
  | Requirements will fluctuate during execution and may exceed these estimates |
  +-----------------------------------------------------------------------------+
  Total Time for EFG Tensors                     408.24 sec       |<-- EFG
 
  Starting Calculation of Chemical Shielding Tensors              |<-- NMR
  +---------------- MEMORY AND SCRATCH DISK ESTIMATES PER PROCESS --------------+
  |                                                     Memory          Disk    |
  | Model and support data                             1316.9 MB         0.0 MB |
  | NMR chemical shift calculation requirements         564.4 MB         0.0 MB |
  |                                               ----------------------------- |
  | Approx. total storage required per process         1881.3 MB         0.0 MB |
  |                                                                             |
  | Requirements will fluctuate during execution and may exceed these estimates |
  +-----------------------------------------------------------------------------+
  Starting k-point:   1 of   1                                    |<-- NMR
  Total Time for step 1 of 6:                   3298.32 sec       |<-- NMR
  Total Time for step 2 of 6:                   3317.70 sec       |<-- NMR
  Total Time for step 3 of 6:                   3309.86 sec       |<-- NMR
  Total Time for step 4 of 6:                   3296.45 sec       |<-- NMR
  Total Time for step 5 of 6:                   3308.25 sec       |<-- NMR
  Total Time for step 6 of 6:                   3315.77 sec       |<-- NMR
  Total Time for Chemical Shielding Tensors    29079.43 sec       |<-- NMR
 
  ========================================================================
  |           Chemical Shielding and Electric Field Gradient Tensors     |
  |----------------------------------------------------------------------|
  |     Nucleus                Shielding tensor             EFG Tensor   |
  |  Species       Ion    Iso(ppm)   Aniso(ppm)  Asym    Cq(MHz)    Eta  |
  |    O           1     -317.40     -19.26      0.43   5.046E-02   0.96 |
  |    O           2     -317.23      11.63      0.65  -5.642E-02   0.89 |
  |    O           3     -317.40     -19.26      0.43   5.046E-02   0.96 |
  |    O           4     -317.23      11.63      0.65  -5.642E-02   0.89 |
  |    O           5     -318.90      16.04      0.48  -7.727E-02   0.96 |
  |    O           6     -318.90      16.04      0.48  -7.727E-02   0.96 |
  |    O           7     -317.76     -18.85      0.59   3.484E-02   0.80 |
  |    O           8     -317.76     -18.85      0.59   3.484E-02   0.80 |
  |    O           9      -81.66      87.68      0.13  -3.212E+00   0.08 |
  |    O          10      -89.82      84.59      0.03  -3.215E+00   0.09 |
  |    O          11     -159.38     138.37      0.82   1.075E+00   0.65 |
  |    O          12      -16.40      60.21      0.15   3.944E+00   0.81 |
  |    O          13       -8.45      56.48      0.77   3.887E+00   0.87 |
  |    O          14      -83.83      86.63      0.28  -3.158E+00   0.09 |
  |    O          15      -83.83      86.64      0.28  -3.158E+00   0.09 |
  |    O          16       -8.45      56.48      0.77   3.887E+00   0.87 |
  |    O          17      -88.62      84.65      0.16  -3.151E+00   0.08 |
  |    O          18      -11.24      58.61      0.42   3.940E+00   0.84 |
  |    O          19      -88.09      97.03      0.30  -3.148E+00   0.10 |
  |    O          20     -161.62     144.23      0.84   1.041E+00   0.74 |
  |    O          21      -87.76      78.84      0.06  -3.234E+00   0.09 |
  |    O          22      -87.89      90.69      0.10  -3.166E+00   0.09 |
  |    O          23      -86.38      87.69      0.07  -3.166E+00   0.10 |
  |    O          24      -87.84      93.61      0.32  -3.163E+00   0.08 |
  |    O          25      -89.62      87.68      0.12  -3.150E+00   0.04 |
  |    O          26       -6.06      67.25      0.80   3.843E+00   0.89 |
  |    O          27      -86.66      87.56      0.14  -3.289E+00   0.12 |
  |    O          28     -163.09     154.90      0.87   1.070E+00   0.79 |
  |    O          29      -88.24      93.35      0.18  -3.171E+00   0.07 |
  |    O          30       -2.74      69.79      0.55   3.902E+00   0.85 |
  |    O          31       -2.74      69.79      0.55   3.902E+00   0.85 |
  |    O          32      -88.24      93.35      0.18  -3.171E+00   0.07 |
  |    O          33     -163.09     154.90      0.87   1.070E+00   0.79 |
  |    O          34       -6.06      67.25      0.80   3.843E+00   0.89 |
  |    O          35      -87.84      93.61      0.32  -3.163E+00   0.08 |
  |    O          36      -87.89      90.69      0.10  -3.166E+00   0.09 |
  |    O          37      -87.28      76.22      0.09  -3.255E+00   0.11 |
  |    O          38     -163.05     148.83      0.87   1.045E+00   0.74 |
  |    O          39      -88.73      86.82      0.26  -3.207E+00   0.08 |
  |    O          40     -161.92     151.49      0.81   1.025E+00   0.80 |
  |    O          41      -16.40      60.21      0.15   3.944E+00   0.81 |
  |    O          42      -89.82      84.59      0.03  -3.215E+00   0.09 |
  |    O          43      -88.62      84.65      0.16  -3.151E+00   0.08 |
  |    O          44      -88.09      97.03      0.30  -3.148E+00   0.10 |
  |    O          45      -81.66      87.68      0.13  -3.212E+00   0.08 |
  |    O          46     -159.38     138.37      0.82   1.075E+00   0.65 |
  |    O          47      -11.24      58.61      0.42   3.940E+00   0.84 |
  |    O          48     -161.61     144.23      0.84   1.041E+00   0.74 |
  |    O          49      -87.76      78.84      0.06  -3.234E+00   0.09 |
  |    O          50      -86.38      87.69      0.07  -3.166E+00   0.10 |
  |    O          51      -89.62      87.68      0.12  -3.150E+00   0.04 |
  |    O          52      -86.66      87.56      0.14  -3.289E+00   0.12 |
  |    O          53      -87.28      76.22      0.09  -3.255E+00   0.11 |
  |    O          54     -163.05     148.83      0.87   1.045E+00   0.74 |
  |    O          55      -88.73      86.82      0.26  -3.207E+00   0.08 |
  |    O          56     -161.92     151.49      0.81   1.025E+00   0.80 |
  |    Zr          1     1629.22    -124.64      0.12  -3.771E+01   0.02 |
  |    Zr          2     1608.09    -118.19      0.14  -3.572E+01   0.10 |
  |    Zr          3     1627.79    -124.61      0.13  -3.754E+01   0.04 |
  |    Zr          4     1628.38    -123.04      0.09  -3.748E+01   0.10 |
  |    Zr          5     1629.22    -124.64      0.12  -3.771E+01   0.02 |
  |    Zr          6     1608.08    -118.19      0.14  -3.572E+01   0.10 |
  |    Zr          7     1627.79    -124.61      0.13  -3.754E+01   0.04 |
  |    Zr          8     1628.38    -123.04      0.09  -3.748E+01   0.10 |
  |    Sn          1     3255.74     -59.69      0.48   1.259E+02   0.15 |
  |    Sn          2     3254.56     -57.69      0.58   1.255E+02   0.02 |
  |    Sn          3     3255.74     -59.69      0.48   1.259E+02   0.15 |
  |    Sn          4     3254.56     -57.70      0.58   1.255E+02   0.02 |
  |    Sn          5     3254.35     -58.07      0.52   1.247E+02   0.04 |
  |    Sn          6     3250.79     -46.72      0.36   1.295E+02   0.17 |
  |    Sn          7     3250.80     -46.71      0.36   1.295E+02   0.17 |
  |    Sn          8     3254.35     -58.07      0.52   1.247E+02   0.04 |
  |    La          1     4658.40     649.36      0.09  -8.144E+01   0.13 |
  |    La          2     4647.12     662.73      0.11  -7.877E+01   0.14 |
  |    La          3     4658.64     656.27      0.08  -8.203E+01   0.09 |
  |    La          4     4754.64     859.84      0.04  -8.818E+01   0.06 |
  |    La          5     4545.69     388.37      0.08  -7.153E+01   0.10 |
  |    La          6     4654.44     657.55      0.11  -8.029E+01   0.14 |
  |    La          7     4754.64     859.84      0.04  -8.818E+01   0.06 |
  |    La          8     4658.40     649.36      0.09  -8.144E+01   0.13 |
  |    La          9     4647.12     662.73      0.11  -7.877E+01   0.14 |
  |    La         10     4658.64     656.27      0.08  -8.203E+01   0.09 |
  |    La         11     4545.69     388.37      0.08  -7.153E+01   0.10 |
  |    La         12     4654.44     657.55      0.11  -8.029E+01   0.14 |
  |    La         13     4654.52     662.47      0.09  -8.072E+01   0.10 |
  |    La         14     4668.09     650.11      0.07  -8.277E+01   0.13 |
  |    La         15     4668.09     650.11      0.07  -8.277E+01   0.13 |
  |    La         16     4654.52     662.47      0.09  -8.072E+01   0.10 |
  ========================================================================
 
 *********************** Forces ***********************
 *                                                    *
 *            Cartesian components (eV/A)             *
 * -------------------------------------------------- *
 *                   x            y            z      *
 *                                                    *
 * O         1     -0.00019     -0.00185     -0.00255 *
 * O         2      0.00042      0.00388     -0.00278 *
 * O         3     -0.00019     -0.00185     -0.00255 *
 * O         4      0.00042      0.00388     -0.00278 *
 * O         5     -0.00786     -0.00254      0.00131 *
 * O         6     -0.00786     -0.00254      0.00131 *
 * O         7      0.00618      0.00183     -0.00379 *
 * O         8      0.00618      0.00183     -0.00379 *
 * O         9      0.00789      0.00941      0.01672 *
 * O        10     -0.00740     -0.02158      0.01705 *
 * O        11     -0.01441     -0.00409      0.00516 *
 * O        12      0.00406      0.00165      0.00095 *
 * O        13      0.00179      0.01120     -0.00321 *
 * O        14     -0.01289      0.00195      0.02312 *
 * O        15     -0.01289      0.00195      0.02312 *
 * O        16      0.00179      0.01120     -0.00321 *
 * O        17     -0.02354     -0.02232      0.00550 *
 * O        18     -0.00716      0.00525     -0.01538 *
 * O        19     -0.00862      0.01370     -0.00657 *
 * O        20     -0.00345      0.00223      0.00694 *
 * O        21      0.02518      0.01015     -0.02616 *
 * O        22      0.01374     -0.00815      0.02661 *
 * O        23     -0.00660     -0.00664     -0.02243 *
 * O        24      0.01555      0.00916     -0.01607 *
 * O        25     -0.00277      0.01677     -0.02102 *
 * O        26     -0.01352     -0.00516     -0.00220 *
 * O        27     -0.01793     -0.01727     -0.01280 *
 * O        28      0.01391      0.00674     -0.00438 *
 * O        29      0.02252      0.03633     -0.00159 *
 * O        30      0.00273      0.00181      0.00649 *
 * O        31      0.00273      0.00181      0.00649 *
 * O        32      0.02252      0.03633     -0.00159 *
 * O        33      0.01391      0.00674     -0.00438 *
 * O        34     -0.01352     -0.00516     -0.00220 *
 * O        35      0.01555      0.00916     -0.01607 *
 * O        36      0.01374     -0.00814      0.02661 *
 * O        37      0.01434     -0.01695      0.01639 *
 * O        38      0.00472     -0.00675     -0.01222 *
 * O        39     -0.02834     -0.01371      0.01636 *
 * O        40      0.00286      0.01313      0.00656 *
 * O        41      0.00406      0.00165      0.00095 *
 * O        42     -0.00740     -0.02158      0.01705 *
 * O        43     -0.02354     -0.02232      0.00550 *
 * O        44     -0.00862      0.01370     -0.00657 *
 * O        45      0.00789      0.00941      0.01672 *
 * O        46     -0.01441     -0.00409      0.00516 *
 * O        47     -0.00716      0.00525     -0.01538 *
 * O        48     -0.00345      0.00223      0.00694 *
 * O        49      0.02518      0.01015     -0.02616 *
 * O        50     -0.00660     -0.00664     -0.02243 *
 * O        51     -0.00277      0.01677     -0.02102 *
 * O        52     -0.01793     -0.01727     -0.01280 *
 * O        53      0.01434     -0.01695      0.01639 *
 * O        54      0.00472     -0.00675     -0.01222 *
 * O        55     -0.02834     -0.01371      0.01636 *
 * O        56      0.00286      0.01313      0.00656 *
 * Zr        1     -0.00338      0.01620      0.00383 *
 * Zr        2      0.00259      0.01034     -0.01547 *
 * Zr        3      0.01104      0.02524     -0.01625 *
 * Zr        4      0.00459     -0.01850      0.02793 *
 * Zr        5     -0.00338      0.01620      0.00382 *
 * Zr        6      0.00259      0.01034     -0.01547 *
 * Zr        7      0.01104      0.02525     -0.01625 *
 * Zr        8      0.00459     -0.01850      0.02793 *
 * Sn        1      0.00545      0.00184      0.00102 *
 * Sn        2      0.00307     -0.01542      0.01516 *
 * Sn        3      0.00545      0.00184      0.00102 *
 * Sn        4      0.00307     -0.01542      0.01516 *
 * Sn        5      0.01029     -0.00416     -0.00225 *
 * Sn        6     -0.00071     -0.01405     -0.01482 *
 * Sn        7     -0.00071     -0.01405     -0.01482 *
 * Sn        8      0.01029     -0.00416     -0.00225 *
 * La        1      0.00204      0.00488      0.00022 *
 * La        2      0.00674     -0.00624     -0.00201 *
 * La        3     -0.00678      0.00727      0.00572 *
 * La        4     -0.01599     -0.01606      0.00643 *
 * La        5      0.00073     -0.00260      0.00208 *
 * La        6      0.00423     -0.00441     -0.00697 *
 * La        7     -0.01599     -0.01606      0.00643 *
 * La        8      0.00204      0.00488      0.00022 *
 * La        9      0.00674     -0.00624     -0.00201 *
 * La       10     -0.00678      0.00727      0.00572 *
 * La       11      0.00073     -0.00260      0.00208 *
 * La       12      0.00423     -0.00442     -0.00697 *
 * La       13     -0.01417     -0.00214      0.00689 *
 * La       14      0.00904     -0.00039     -0.00752 *
 * La       15      0.00904     -0.00039     -0.00752 *
 * La       16     -0.01417     -0.00214      0.00688 *
 *                                                    *
 ******************************************************
 
 ***************** Stress Tensor *****************
 *                                               *
 *          Cartesian components (GPa)           *
 * --------------------------------------------- *
 *             x             y             z     *
 *                                               *
 *  x      0.050666      0.016576     -0.006480  *
 *  y      0.016576      0.043552     -0.019542  *
 *  z     -0.006480     -0.019542      0.029965  *
 *                                               *
 *  Pressure:   -0.0414                          *
 *                                               *
 *************************************************
 
 Pseudo atomic calculation performed for O 2s2 2p4
 
 Converged in 39 iterations to a total energy of -432.6554 eV
 
 
 Pseudo atomic calculation performed for Zr 4s2 4p6 4d2 5s2
 
 Converged in 38 iterations to a total energy of -1285.4931 eV
 
 
 Pseudo atomic calculation performed for Sn 4d10 5s2 5p2
 
 Converged in 48 iterations to a total energy of -2044.5414 eV
 
 
 Pseudo atomic calculation performed for La 5s2 5p6 5d1 6s2
 
 Converged in 34 iterations to a total energy of -968.0372 eV
 
Charge spilling parameter for spin component 1 = 0.24%
 
     Atomic Populations (Mulliken)
     -----------------------------
Species   Ion     s      p      d      f     Total  Charge (e)
==============================================================
  O        1     1.87   5.00   0.00   0.00   6.87    -0.87
  O        2     1.87   5.00   0.00   0.00   6.87    -0.87
  O        3     1.87   5.00   0.00   0.00   6.87    -0.87
  O        4     1.87   5.00   0.00   0.00   6.87    -0.87
  O        5     1.87   5.00   0.00   0.00   6.87    -0.87
  O        6     1.87   5.00   0.00   0.00   6.87    -0.87
  O        7     1.87   5.00   0.00   0.00   6.87    -0.87
  O        8     1.87   5.00   0.00   0.00   6.87    -0.87
  O        9     1.87   4.99   0.00   0.00   6.85    -0.85
  O       10     1.87   4.99   0.00   0.00   6.86    -0.86
  O       11     1.86   4.95   0.00   0.00   6.80    -0.80
  O       12     1.88   5.02   0.00   0.00   6.91    -0.91
  O       13     1.88   5.02   0.00   0.00   6.91    -0.91
  O       14     1.87   4.99   0.00   0.00   6.85    -0.85
  O       15     1.87   4.99   0.00   0.00   6.85    -0.85
  O       16     1.88   5.02   0.00   0.00   6.91    -0.91
  O       17     1.87   4.99   0.00   0.00   6.86    -0.86
  O       18     1.88   5.02   0.00   0.00   6.91    -0.91
  O       19     1.87   4.99   0.00   0.00   6.85    -0.85
  O       20     1.86   4.95   0.00   0.00   6.80    -0.80
  O       21     1.87   4.99   0.00   0.00   6.86    -0.86
  O       22     1.87   4.99   0.00   0.00   6.86    -0.86
  O       23     1.87   4.99   0.00   0.00   6.86    -0.86
  O       24     1.87   4.99   0.00   0.00   6.86    -0.86
  O       25     1.87   4.99   0.00   0.00   6.86    -0.86
  O       26     1.88   5.02   0.00   0.00   6.91    -0.91
  O       27     1.87   4.99   0.00   0.00   6.86    -0.86
  O       28     1.86   4.95   0.00   0.00   6.80    -0.80
  O       29     1.87   4.99   0.00   0.00   6.86    -0.86
  O       30     1.88   5.02   0.00   0.00   6.91    -0.91
  O       31     1.88   5.02   0.00   0.00   6.91    -0.91
  O       32     1.87   4.99   0.00   0.00   6.86    -0.86
  O       33     1.86   4.95   0.00   0.00   6.80    -0.80
  O       34     1.88   5.02   0.00   0.00   6.91    -0.91
  O       35     1.87   4.99   0.00   0.00   6.86    -0.86
  O       36     1.87   4.99   0.00   0.00   6.86    -0.86
  O       37     1.87   4.99   0.00   0.00   6.86    -0.86
  O       38     1.86   4.95   0.00   0.00   6.80    -0.80
  O       39     1.87   4.99   0.00   0.00   6.86    -0.86
  O       40     1.86   4.95   0.00   0.00   6.80    -0.80
  O       41     1.88   5.02   0.00   0.00   6.91    -0.91
  O       42     1.87   4.99   0.00   0.00   6.86    -0.86
  O       43     1.87   4.99   0.00   0.00   6.86    -0.86
  O       44     1.87   4.99   0.00   0.00   6.85    -0.85
  O       45     1.87   4.99   0.00   0.00   6.85    -0.85
  O       46     1.86   4.95   0.00   0.00   6.80    -0.80
  O       47     1.88   5.02   0.00   0.00   6.91    -0.91
  O       48     1.86   4.95   0.00   0.00   6.80    -0.80
  O       49     1.87   4.99   0.00   0.00   6.86    -0.86
  O       50     1.87   4.99   0.00   0.00   6.86    -0.86
  O       51     1.87   4.99   0.00   0.00   6.86    -0.86
  O       52     1.87   4.99   0.00   0.00   6.86    -0.86
  O       53     1.87   4.99   0.00   0.00   6.86    -0.86
  O       54     1.86   4.95   0.00   0.00   6.80    -0.80
  O       55     1.87   4.99   0.00   0.00   6.86    -0.86
  O       56     1.86   4.95   0.00   0.00   6.80    -0.80
  Zr       1     2.37   6.48   1.92   0.00  10.78     1.22
  Zr       2     2.37   6.50   1.92   0.00  10.79     1.21
  Zr       3     2.37   6.48   1.92   0.00  10.77     1.23
  Zr       4     2.36   6.48   1.92   0.00  10.77     1.23
  Zr       5     2.37   6.48   1.92   0.00  10.78     1.22
  Zr       6     2.37   6.50   1.92   0.00  10.79     1.21
  Zr       7     2.37   6.48   1.92   0.00  10.77     1.23
  Zr       8     2.36   6.48   1.92   0.00  10.77     1.23
  Sn       1     1.05   1.31  10.00   0.00  12.36     1.64
  Sn       2     1.05   1.31  10.00   0.00  12.36     1.64
  Sn       3     1.05   1.31  10.00   0.00  12.36     1.64
  Sn       4     1.05   1.31  10.00   0.00  12.36     1.64
  Sn       5     1.05   1.31  10.00   0.00  12.36     1.64
  Sn       6     1.05   1.31  10.00   0.00  12.36     1.64
  Sn       7     1.05   1.31  10.00   0.00  12.36     1.64
  Sn       8     1.05   1.31  10.00   0.00  12.36     1.64
  La       1     2.07   6.17   1.19   0.00   9.43     1.57
  La       2     2.09   6.16   1.19   0.00   9.45     1.55
  La       3     2.07   6.18   1.19   0.00   9.44     1.56
  La       4     2.01   6.15   1.19   0.00   9.35     1.65
  La       5     2.13   6.19   1.19   0.00   9.52     1.48
  La       6     2.05   6.17   1.19   0.00   9.42     1.58
  La       7     2.01   6.15   1.19   0.00   9.35     1.65
  La       8     2.07   6.17   1.19   0.00   9.43     1.57
  La       9     2.09   6.16   1.19   0.00   9.45     1.55
  La      10     2.07   6.18   1.19   0.00   9.44     1.56
  La      11     2.13   6.19   1.19   0.00   9.52     1.48
  La      12     2.05   6.17   1.19   0.00   9.42     1.58
  La      13     2.05   6.17   1.19   0.00   9.42     1.58
  La      14     2.04   6.18   1.19   0.00   9.42     1.58
  La      15     2.04   6.18   1.19   0.00   9.42     1.58
  La      16     2.05   6.17   1.19   0.00   9.42     1.58
==============================================================
 
            Bond              Population      Length (A)
============================================================
         O 27 -- Sn 7              0.35        2.09715
         O 52 -- Sn 6              0.35        2.09715
         O 45 -- Sn 7              0.35        2.10382
         O 9  -- Sn 6              0.35        2.10382
         O 53 -- Sn 3              0.34        2.10431
         O 37 -- Sn 1              0.34        2.10431
         O 43 -- Sn 5              0.35        2.10622
         O 17 -- Sn 8              0.35        2.10622
         O 10 -- Sn 2              0.35        2.10623
         O 42 -- Sn 4              0.35        2.10623
         O 23 -- Sn 2              0.34        2.10646
         O 50 -- Sn 4              0.34        2.10646
         O 39 -- Sn 1              0.35        2.10651
         O 55 -- Sn 3              0.35        2.10651
         O 49 -- Sn 1              0.35        2.10664
         O 21 -- Sn 3              0.35        2.10664
         O 35 -- Sn 7              0.34        2.10667
         O 24 -- Sn 6              0.34        2.10667
         O 22 -- Sn 5              0.34        2.10679
         O 36 -- Sn 8              0.34        2.10679
         O 47 -- Sn 1              0.34        2.10833
         O 18 -- Sn 3              0.34        2.10833
         O 29 -- Sn 5              0.35        2.10864
         O 32 -- Sn 8              0.35        2.10864
         O 12 -- Sn 5              0.33        2.10934
         O 41 -- Sn 8              0.33        2.10934
         O 14 -- Sn 6              0.34        2.10953
         O 15 -- Sn 7              0.34        2.10953
         O 44 -- Sn 6              0.34        2.10987
         O 19 -- Sn 7              0.34        2.10987
         O 47 -- Sn 2              0.33        2.11035
         O 18 -- Sn 4              0.33        2.11035
         O 16 -- Sn 8              0.34        2.11038
         O 13 -- Sn 5              0.34        2.11038
         O 13 -- Sn 4              0.34        2.11101
         O 16 -- Sn 2              0.34        2.11101
         O 12 -- Sn 3              0.33        2.11214
         O 41 -- Sn 1              0.33        2.11214
         O 28 -- Zr 4              0.41        2.11232
         O 33 -- Zr 8              0.41        2.11232
         O 30 -- Sn 4              0.33        2.11234
         O 31 -- Sn 2              0.33        2.11234
         O 30 -- Sn 6              0.33        2.11294
         O 31 -- Sn 7              0.33        2.11294
         O 51 -- Sn 2              0.35        2.11353
         O 25 -- Sn 4              0.35        2.11353
         O 33 -- Zr 3              0.41        2.11368
         O 28 -- Zr 7              0.41        2.11368
         O 52 -- Zr 1              0.45        2.11595
         O 27 -- Zr 5              0.45        2.11595
         O 54 -- Zr 6              0.42        2.11712
         O 38 -- Zr 2              0.42        2.11712
         O 22 -- Zr 7              0.45        2.11719
         O 36 -- Zr 3              0.45        2.11719
         O 19 -- Zr 7              0.46        2.11725
         O 44 -- Zr 3              0.46        2.11725
         O 29 -- Zr 4              0.45        2.11819
         O 32 -- Zr 8              0.45        2.11819
         O 24 -- Zr 6              0.45        2.11861
         O 35 -- Zr 2              0.45        2.11861
         O 26 -- Sn 8              0.33        2.11903
         O 34 -- Sn 5              0.33        2.11903
         O 55 -- Zr 2              0.44        2.11917
         O 39 -- Zr 6              0.44        2.11917
         O 56 -- Zr 1              0.43        2.11930
         O 40 -- Zr 5              0.43        2.11930
         O 38 -- Zr 5              0.41        2.11997
         O 54 -- Zr 1              0.41        2.11997
         O 9  -- Zr 5              0.45        2.12018
         O 45 -- Zr 1              0.45        2.12018
         O 20 -- Zr 5              0.42        2.12053
         O 48 -- Zr 1              0.42        2.12053
         O 15 -- Zr 8              0.46        2.12061
         O 14 -- Zr 4              0.46        2.12061
         O 50 -- Zr 1              0.44        2.12069
         O 23 -- Zr 5              0.44        2.12069
         O 10 -- Zr 6              0.44        2.12085
         O 42 -- Zr 2              0.44        2.12085
         O 17 -- Zr 6              0.44        2.12111
         O 43 -- Zr 2              0.44        2.12111
         O 34 -- Sn 1              0.33        2.12174
         O 26 -- Sn 3              0.33        2.12174
         O 11 -- Zr 8              0.42        2.12213
         O 46 -- Zr 4              0.42        2.12213
         O 20 -- Zr 4              0.42        2.12253
         O 48 -- Zr 8              0.42        2.12253
         O 56 -- Zr 7              0.42        2.12267
         O 40 -- Zr 3              0.42        2.12267
         O 11 -- Zr 7              0.42        2.12345
         O 46 -- Zr 3              0.42        2.12345
         O 21 -- Zr 8              0.45        2.12346
         O 49 -- Zr 4              0.45        2.12346
         O 37 -- Zr 7              0.45        2.12385
         O 53 -- Zr 3              0.45        2.12385
         O 25 -- Zr 6              0.45        2.12481
         O 51 -- Zr 2              0.45        2.12481
         O 8  -- La 4              0.19        2.35640
         O 7  -- La 7              0.19        2.35640
         O 4  -- La 4              0.20        2.35793
         O 2  -- La 7              0.20        2.35793
         O 1  -- La 10             0.17        2.35931
         O 3  -- La 3              0.17        2.35931
         O 7  -- La 16             0.17        2.35943
         O 8  -- La 13             0.17        2.35943
         O 3  -- La 14             0.18        2.35948
         O 1  -- La 15             0.18        2.35948
         O 2  -- La 13             0.18        2.35958
         O 4  -- La 16             0.18        2.35958
         O 7  -- La 3              0.18        2.35963
         O 8  -- La 10             0.18        2.35963
         O 4  -- La 6              0.18        2.35966
         O 2  -- La 12             0.18        2.35966
         O 1  -- La 1              0.17        2.35982
         O 3  -- La 8              0.17        2.35982
         O 6  -- La 14             0.19        2.36033
         O 5  -- La 15             0.19        2.36033
         O 4  -- La 9              0.17        2.36049
         O 2  -- La 2              0.17        2.36049
         O 5  -- La 6              0.17        2.36050
         O 6  -- La 12             0.17        2.36050
         O 5  -- La 8              0.18        2.36078
         O 6  -- La 1              0.18        2.36078
         O 6  -- La 9              0.16        2.36119
         O 5  -- La 2              0.16        2.36119
         O 8  -- La 5              0.16        2.36442
         O 7  -- La 11             0.16        2.36442
         O 3  -- La 5              0.15        2.36487
         O 1  -- La 11             0.15        2.36487
         O 40 -- La 9              0.12        2.65231
         O 56 -- La 2              0.12        2.65231
         O 33 -- La 13             0.12        2.65505
         O 28 -- La 16             0.12        2.65505
         O 20 -- La 12             0.12        2.65733
         O 48 -- La 6              0.12        2.65733
         O 54 -- La 3              0.13        2.66008
         O 38 -- La 10             0.13        2.66008
         O 16 -- La 5              0.23        2.66295
         O 13 -- La 11             0.23        2.66295
         O 23 -- La 11             0.17        2.66365
         O 50 -- La 5              0.17        2.66365
         O 34 -- La 11             0.25        2.66464
         O 26 -- La 5              0.25        2.66464
         O 46 -- La 1              0.13        2.66583
         O 11 -- La 8              0.13        2.66583
         O 47 -- La 11             0.24        2.66644
         O 18 -- La 5              0.24        2.66644
         O 45 -- La 5              0.19        2.66706
         O 9  -- La 11             0.19        2.66706
         O 31 -- La 5              0.24        2.66811
         O 30 -- La 11             0.24        2.66811
         O 10 -- La 13             0.17        2.66854
         O 42 -- La 16             0.17        2.66854
         O 39 -- La 3              0.19        2.66947
         O 55 -- La 10             0.19        2.66947
         O 37 -- La 2              0.18        2.67076
         O 53 -- La 9              0.18        2.67076
         O 11 -- La 14             0.14        2.67082
         O 46 -- La 15             0.14        2.67082
         O 17 -- La 10             0.18        2.67235
         O 43 -- La 3              0.18        2.67235
         O 54 -- La 7              0.13        2.67284
         O 38 -- La 4              0.13        2.67284
         O 36 -- La 2              0.17        2.67300
         O 22 -- La 9              0.17        2.67300
         O 21 -- La 6              0.17        2.67386
         O 49 -- La 12             0.17        2.67386
         O 41 -- La 2              0.23        2.67410
         O 12 -- La 9              0.23        2.67410
         O 55 -- La 1              0.18        2.67433
         O 39 -- La 8              0.18        2.67433
         O 33 -- La 4              0.13        2.67545
         O 28 -- La 7              0.13        2.67545
         O 35 -- La 16             0.17        2.67641
         O 24 -- La 13             0.17        2.67641
         O 15 -- La 13             0.18        2.67672
         O 14 -- La 16             0.18        2.67672
         O 27 -- La 9              0.16        2.67705
         O 52 -- La 2              0.16        2.67705
         O 27 -- La 12             0.18        2.67709
         O 52 -- La 6              0.18        2.67709
         O 40 -- La 4              0.14        2.67719
         O 56 -- La 7              0.14        2.67719
         O 25 -- La 8              0.18        2.67738
         O 51 -- La 1              0.18        2.67738
         O 32 -- La 12             0.17        2.67774
         O 29 -- La 6              0.17        2.67774
         O 48 -- La 4              0.14        2.67804
         O 20 -- La 7              0.14        2.67804
         O 19 -- La 9              0.18        2.67838
         O 44 -- La 2              0.18        2.67838
         O 41 -- La 12             0.24        2.67848
         O 12 -- La 6              0.24        2.67848
         O 21 -- La 8              0.19        2.67913
         O 49 -- La 1              0.19        2.67913
         O 17 -- La 15             0.18        2.67928
         O 43 -- La 14             0.18        2.67928
         O 34 -- La 3              0.25        2.67930
         O 26 -- La 10             0.25        2.67930
         O 25 -- La 15             0.19        2.68009
         O 51 -- La 14             0.19        2.68009
         O 31 -- La 13             0.24        2.68035
         O 30 -- La 16             0.24        2.68035
         O 15 -- La 12             0.17        2.68085
         O 14 -- La 6              0.17        2.68085
         O 10 -- La 7              0.18        2.68176
         O 42 -- La 4              0.18        2.68176
         O 32 -- La 14             0.19        2.68187
         O 29 -- La 15             0.19        2.68187
         O 24 -- La 10             0.19        2.68195
         O 35 -- La 3              0.19        2.68195
         O 53 -- La 1              0.19        2.68270
         O 37 -- La 8              0.19        2.68270
         O 16 -- La 14             0.24        2.68360
         O 13 -- La 15             0.24        2.68360
         O 18 -- La 8              0.24        2.68440
         O 47 -- La 1              0.24        2.68440
         O 19 -- La 16             0.18        2.68700
         O 44 -- La 13             0.18        2.68701
         O 36 -- La 15             0.19        2.68767
         O 22 -- La 14             0.19        2.68767
         O 23 -- La 7              0.18        2.69931
         O 50 -- La 4              0.18        2.69931
         O 9  -- La 10             0.18        2.70002
         O 45 -- La 3              0.18        2.70002
         O 23 -- O 47             -0.06        2.79325
         O 18 -- O 50             -0.06        2.79325
         O 36 -- O 41             -0.06        2.79472
         O 12 -- O 22             -0.06        2.79472
         O 13 -- O 30             -0.05        2.79560
         O 16 -- O 31             -0.05        2.79560
         O 44 -- O 52             -0.06        2.79608
         O 19 -- O 27             -0.06        2.79608
         O 37 -- O 41             -0.06        2.79625
         O 12 -- O 53             -0.06        2.79625
         O 10 -- O 31             -0.06        2.79630
         O 30 -- O 42             -0.06        2.79630
         O 16 -- O 26             -0.05        2.79645
         O 13 -- O 34             -0.05        2.79645
         O 31 -- O 45             -0.06        2.79771
         O 9  -- O 30             -0.06        2.79771
         O 32 -- O 41             -0.06        2.79856
         O 12 -- O 29             -0.06        2.79856
         O 34 -- O 47             -0.05        2.79977
         O 18 -- O 26             -0.05        2.79977
         O 15 -- O 27             -0.06        2.80040
         O 14 -- O 52             -0.06        2.80040
         O 37 -- O 39             -0.06        2.80059
         O 53 -- O 55             -0.06        2.80059
         O 41 -- O 49             -0.06        2.80164
         O 12 -- O 21             -0.06        2.80164
         O 47 -- O 49             -0.06        2.80493
         O 18 -- O 21             -0.06        2.80493
         O 47 -- O 51             -0.06        2.80508
         O 18 -- O 25             -0.06        2.80508
         O 24 -- O 44             -0.06        2.80579
         O 19 -- O 35             -0.06        2.80579
         O 17 -- O 26             -0.06        2.80768
         O 34 -- O 43             -0.06        2.80768
         O 16 -- O 51             -0.05        2.80821
         O 13 -- O 25             -0.05        2.80821
         O 34 -- O 39             -0.05        2.80851
         O 26 -- O 55             -0.05        2.80851
         O 22 -- O 43             -0.06        2.80967
         O 17 -- O 36             -0.06        2.80967
         O 35 -- O 45             -0.06        2.81055
         O 9  -- O 24             -0.06        2.81055
         O 16 -- O 32             -0.05        2.81062
         O 13 -- O 29             -0.05        2.81062
         O 52 -- O 56             -0.03        2.81118
         O 27 -- O 40             -0.03        2.81118
         O 37 -- O 56             -0.03        2.81124
         O 40 -- O 53             -0.03        2.81124
         O 14 -- O 30             -0.05        2.81136
         O 15 -- O 31             -0.05        2.81136
         O 10 -- O 23             -0.06        2.81170
         O 42 -- O 50             -0.06        2.81170
         O 14 -- O 28             -0.03        2.81363
         O 15 -- O 33             -0.03        2.81363
         O 48 -- O 52             -0.03        2.81372
         O 20 -- O 27             -0.03        2.81372
         O 38 -- O 55             -0.03        2.81470
         O 39 -- O 54             -0.03        2.81470
         O 35 -- O 42             -0.03        2.81856
         O 10 -- O 24             -0.03        2.81856
         O 19 -- O 28             -0.03        2.81890
         O 33 -- O 44             -0.03        2.81890
         O 21 -- O 48             -0.03        2.81923
         O 20 -- O 49             -0.03        2.81923
         O 9  -- O 23             -0.03        2.82117
         O 45 -- O 50             -0.03        2.82117
         O 33 -- O 48             -0.03        2.82236
         O 20 -- O 28             -0.03        2.82236
         O 54 -- O 56             -0.03        2.82289
         O 38 -- O 40             -0.03        2.82289
         O 17 -- O 24             -0.03        2.82386
         O 35 -- O 43             -0.03        2.82386
         O 28 -- O 56             -0.03        2.82426
         O 33 -- O 40             -0.03        2.82426
         O 19 -- O 22             -0.03        2.82430
         O 36 -- O 44             -0.03        2.82430
         O 11 -- O 21             -0.03        2.82559
         O 46 -- O 49             -0.03        2.82559
         O 38 -- O 42             -0.03        2.82619
         O 10 -- O 54             -0.03        2.82619
         O 46 -- O 53             -0.03        2.82838
         O 11 -- O 37             -0.03        2.82838
         O 29 -- O 46             -0.03        2.82842
         O 11 -- O 32             -0.03        2.82842
         O 9  -- O 38             -0.03        2.82894
         O 45 -- O 54             -0.03        2.82894
         O 25 -- O 39             -0.03        2.83162
         O 51 -- O 55             -0.03        2.83162
         O 14 -- O 29             -0.03        2.83165
         O 15 -- O 32             -0.03        2.83165
         O 36 -- O 46             -0.03        2.83296
         O 11 -- O 22             -0.03        2.83296
         O 17 -- O 25             -0.03        2.83360
         O 43 -- O 51             -0.03        2.83360
         O 48 -- O 50             -0.03        2.83653
         O 20 -- O 23             -0.03        2.83653
============================================================
 

Writing analysis data to 077.castep_bin

Writing model to 077.check
 
 A BibTeX formatted list of references used in this run has been written to 
 077.bib
 
Initialisation time =     53.53 s
Calculation time    =  33458.00 s
Finalisation time   =     30.87 s
Total time          =  33542.39 s
Peak Memory Use     = 2840208 kB
  
Overall parallel efficiency rating: Good (78%)                                  
  
Data was distributed by:-
G-vector (4-way); efficiency rating: Good (79%)                                 
k-point (14-way); efficiency rating: Excellent (99%)                            
