 +-------------------------------------------------+
 |                                                 |
 |      CCC   AA    SSS  TTTTT  EEEEE  PPPP        |
 |     C     A  A  S       T    E      P   P       |
 |     C     AAAA   SS     T    EEE    PPPP        |
 |     C     A  A     S    T    E      P           |
 |      CCC  A  A  SSS     T    EEEEE  P           |
 |                                                 |
 +-------------------------------------------------+
 |                                                 |
 | Welcome to Academic Release CASTEP version 16.11|          
 | Ab Initio Total Energy Program                  |
 |                                                 |
 | Authors:                                        |
 | M. Segall, M. Probert, C. Pickard, P. Hasnip,   |
 | S. Clark, K. Refson, J. R. Yates, M. Payne      |
 |                                                 |
 | Contributors:                                   |
 | P. Lindan, P. Haynes, J. White, V. Milman,      |
 | N. Govind, M. Gibson, P. Tulip, V. Cocula,      |
 | B. Montanari, D. Quigley, M. Glover,            |
 | L. Bernasconi, A. Perlov, M. Plummer,           |
 | E. McNellis, J. Meyer, J. Gale, D. Jochym       |
 | J. Aarons, B. Walker, R. Gillen, D. Jones       |
 | T. Green, I. J. Bush, C. J. Armstrong,          |
 | E. J. Higgins, E. L. Brown, M. S. McFly         |
 |                                                 |
 | Copyright (c) 2000 - 2015                       |
 |                                                 |
 |     Distributed under the terms of an           |
 |     Agreement between the United Kingdom        |
 |     Car-Parrinello (UKCP) Consortium,           |
 |     Daresbury Laboratory and Accelrys, Inc.     |
 |                                                 |
 | Please cite                                     |
 |                                                 |
 |     "First principles methods using CASTEP"     |
 |                                                 |
 |         Zeitschrift fuer Kristallographie       |
 |           220(5-6) pp. 567-570 (2005)           |
 |                                                 |
 | S. J. Clark, M. D. Segall, C. J. Pickard,       |
 | P. J. Hasnip, M. J. Probert, K. Refson,         |
 | M. C. Payne                                     |
 |                                                 |
 |       in all publications arising from          |
 |              your use of CASTEP                 |
 |                                                 |
 +-------------------------------------------------+
 
 
 Compiled for linux_x86_64_ifort16 on Sat, 23 Jul 2016 23:44:54 +0100
 from code version 
 203e84763863+ Castep161_branch Fri, 04 Mar 2016 19:21:07 +0000
 Compiler: Intel Fortran 16.0.3.210; Optimisation: fast
 MATHLIBS: Intel MKL(11.3.3) (LAPACK version 3.6.0)
 FFT Lib : mkl
 Fundamental constants values: CODATA 2010
 
 Run started: Thu, 03 May 2018 04:51:17 +0100
 +-------------------------------------------------+
 |                                                 |
 |           N   N    M   M    RRRR                |
 |           NN  N    MM MM    R   R               |
 |           N N N    M M M    RRRR                |
 |           N  NN    M   M    R  R                |
 |           N   N    M   M    R   R               |
 |                                                 |
 +-------------------------------------------------+
 |                                                 |
 | Welcome to Materials Studio CASTEP-NMR          |
 |                                                 |
 | Authors:                                        |
 | J.R. Yates, C.J. Pickard, F. Mauri              |
 |                                                 |
 | Contributors:                                   |
 | T.F.G. Green, S.A. Joyce                        |
 |                                                 |
 | Copyright (c) 2004 - 2015                       |
 |                                                 |
 | Please cite the appropriate publications in all |
 | work arising from your use of CASTEP NMR.       |
 |                                                 |
 | For NMR Shielding Tensors cite:                 |
 |    "All-electron magnetic response with         |
 |    pseudopotentials: NMR chemical shifts",      |
 |    C. J. Pickard, F. Mauri;                     |
 |    Physical Review B63 245101 (2001), and       |
 |                                                 |
 |    "Calculation of NMR Chemical Shifts          |
 |    for extended systems using                   |
 |    Ultrasoft Pseudopotentials",                 |
 |    J. R. Yates, C. J. Pickard and F. Mauri      |
 |    Physical Review B76 024401 (2007)            |
 |                                                 |
 | For Electric Field Gradients cite:              |
 |   "Accurate First Principles Prediction of 17O  |
 |    NMR Parameters in SiO2: Assignment of the    |
 |    Zeolite Ferrierite Spectrum"                 |
 |    M. Profeta, F. Mauri and C. J. Pickard       |
 |    J. Amer. Chem. Soc. 125 541 (2003)           |
 |                                                 |
 | For Spin-Spin (J) Couplings cite:               |
 |   "A first principles theory of NMR J-coupling  |
 |   in solid-state systems"                       |
 |   S.A. Joyce, J.R. Yates, C.J. Pickard, F. Mauri|
 |   J. Chem. Phys. 127 204107 (2007)              |
 |                                                 |
 |   "Relativistic NMR J-coupling with ultrasoft   |
 |   pseudopotentials and the zeroth-order regular |
 |   approximation"                                |
 |   T.F.G. Green and J.R. Yates                   |
 |   J. Chem. Phys. 140 234106 (2014)              |
 |                                                 |
 +-------------------------------------------------+
 
 
 Atomic calculation performed for O: 1s2 2s2 2p4
 
 Converged in 44 iterations to an ae energy of -2040.855 eV
 
 
 Atomic calculation performed for O: 1s2 2s2 2p4
 
 Exceeded max iterations: converged to 0.000000062 eV
 
   ============================================================                
   | Pseudopotential Report - Date of generation  3-05-2018   |                
   ------------------------------------------------------------                
   | Element: O Ionic charge:  6.00 Level of theory: PBE      |                
   | Atomic Solver: ZORA (scalar)                             |                
   |                                                          |                
   |               Reference Electronic Structure             |                
   |         Orbital         Occupation         Energy        |                
   |            2s              2.000           -0.881        |                
   |            2p              4.000           -0.332        |                
   |                                                          |                
   |                 Pseudopotential Definition               |                
   |        Beta     l      e      Rc     scheme   norm       |                
   |          1      0   -0.881   1.100     qc      0         |                
   |          2      0    0.250   1.100     qc      0         |                
   |          3      1   -0.332   1.100     qc      0         |                
   |          4      1    0.250   1.100     qc      0         |                
   |         loc     2    0.000   1.100     pn      0         |                
   |                                                          |                
   | Augmentation charge Rinner = 0.769                       |                
   | Partial core correction Rc = 0.769                       |                
   ------------------------------------------------------------                
   | "2|1.1|15|18|20|20:21(qc=7)"                             |                
   ------------------------------------------------------------                
   |      Author: Chris J. Pickard, Cambridge University      |                
   ============================================================                
 
 Atomic calculation performed for Zr: 1s2 2s2 2p6 3s2 3p6 3d10 4s2 4p6 4d2 5s2
 
 Converged in 53 iterations to an ae energy of -97719.888 eV
 
 
 Atomic calculation performed for Zr: 1s2 2s2 2p6 3s2 3p6 3d10 4s2 4p6 4d2 5s2
 
 Exceeded max iterations: converged to 0.000000970 eV
 
 Warning: ion_atom_descreen_psp: negative charge density encountered
   ============================================================                
   | Pseudopotential Report - Date of generation  3-05-2018   |                
   ------------------------------------------------------------                
   | Element: Zr Ionic charge: 12.00 Level of theory: PBE     |                
   | Atomic Solver: ZORA (scalar)                             |                
   |                                                          |                
   |               Reference Electronic Structure             |                
   |         Orbital         Occupation         Energy        |                
   |            4s              2.000           -2.003        |                
   |            4p              6.000           -1.193        |                
   |            5s              2.000           -0.163        |                
   |            4d              2.000           -0.132        |                
   |                                                          |                
   |                 Pseudopotential Definition               |                
   |        Beta     l      e      Rc     scheme   norm       |                
   |          1      0   -2.003   2.105     qc      0         |                
   |          2      0   -0.163   2.105     qc      0         |                
   |          3      0    0.250   2.105     qc      0         |                
   |          4      1   -1.193   2.105     qc      0         |                
   |          5      1    0.250   2.105     qc      0         |                
   |          6      2   -0.132   2.105     qc      0         |                
   |          7      2    0.250   2.105     qc      0         |                
   |         loc     3    0.000   2.105     pn      0         |                
   |                                                          |                
   | Augmentation charge Rinner = 1.471                       |                
   | Partial core correction Rc = 1.471                       |                
   ------------------------------------------------------------                
   | "3|2.1|7|8|9|40U:50:41:42"                               |                
   ------------------------------------------------------------                
   |      Author: Chris J. Pickard, Cambridge University      |                
   ============================================================                
 
 Atomic calculation performed for Sn:
 1s2 2s2 2p6 3s2 3p6 3d10 4s2 4p6 4d10 5s2 5p2
 
 Converged in 58 iterations to an ae energy of -167539.320 eV
 
 
 Atomic calculation performed for Sn:
 1s2 2s2 2p6 3s2 3p6 3d10 4s2 4p6 4d10 5s2 5p2
 
 Exceeded max iterations: converged to 0.000001154 eV
 
   ============================================================                
   | Pseudopotential Report - Date of generation  3-05-2018   |                
   ------------------------------------------------------------                
   | Element: Sn Ionic charge: 14.00 Level of theory: PBE     |                
   | Atomic Solver: ZORA (scalar)                             |                
   |                                                          |                
   |               Reference Electronic Structure             |                
   |         Orbital         Occupation         Energy        |                
   |            4d             10.000           -0.950        |                
   |            5s              2.000           -0.388        |                
   |            5p              2.000           -0.136        |                
   |                                                          |                
   |                 Pseudopotential Definition               |                
   |        Beta     l      e      Rc     scheme   norm       |                
   |          1      0   -0.388   2.199     qc      0         |                
   |          2      0    0.250   2.199     qc      0         |                
   |          3      1   -0.136   2.199     qc      0         |                
   |          4      1    0.250   2.199     qc      0         |                
   |          5      2   -0.950   2.199     qc      0         |                
   |          6      2    0.250   2.199     qc      0         |                
   |         loc     3    0.000   2.199     pn      0         |                
   |                                                          |                
   | Augmentation charge Rinner = 1.537                       |                
   | Partial core correction Rc = 1.537                       |                
   ------------------------------------------------------------                
   | "3|2.2|7|8|9|50:51:42"                                   |                
   ------------------------------------------------------------                
   |      Author: Chris J. Pickard, Cambridge University      |                
   ============================================================                
 
 Atomic calculation performed for La:
 1s2 2s2 2p6 3s2 3p6 3d10 4s2 4p6 4d10 5s2 5p6 5d1 6s2
 
 Converged in 56 iterations to an ae energy of -230121.495 eV
 
 
 Atomic calculation performed for La:
 1s2 2s2 2p6 3s2 3p6 3d10 4s2 4p6 4d10 5s2 5p6 5d1 6s2
 
 Exceeded max iterations: converged to 0.000000907 eV
 
 Warning: ion_atom_descreen_psp: negative charge density encountered
   ============================================================                
   | Pseudopotential Report - Date of generation  3-05-2018   |                
   ------------------------------------------------------------                
   | Element: La Ionic charge: 11.00 Level of theory: PBE     |                
   | Atomic Solver: ZORA (scalar)                             |                
   |                                                          |                
   |               Reference Electronic Structure             |                
   |         Orbital         Occupation         Energy        |                
   |            5s              2.000           -1.430        |                
   |            5p              6.000           -0.823        |                
   |            6s              2.000           -0.135        |                
   |            5d              1.000           -0.114        |                
   |                                                          |                
   |                 Pseudopotential Definition               |                
   |        Beta     l      e      Rc     scheme   norm       |                
   |          1      0   -1.430   2.298     qc      0         |                
   |          2      0   -0.135   2.298     qc      0         |                
   |          3      0    0.250   2.298     qc      0         |                
   |          4      1   -0.823   2.298     qc      0         |                
   |          5      1    0.250   2.298     qc      0         |                
   |          6      2   -0.114   2.298     qc      0         |                
   |          7      2    0.250   2.298     qc      0         |                
   |         loc     2    0.000   2.298     pn      0         |                
   |                                                          |                
   | Augmentation charge Rinner = 1.606                       |                
   | Partial core correction Rc = 1.606                       |                
   ------------------------------------------------------------                
   | "2|2.3|5|6|7|50U:60:51:52(qc=4.5)"                       |                
   ------------------------------------------------------------                
   |      Author: Chris J. Pickard, Cambridge University      |                
   ============================================================                
 
 Pseudo atomic calculation performed for O 2s2 2p4
 
 Converged in 39 iterations to a total energy of -432.6554 eV
 
 
 Pseudo atomic calculation performed for Zr 4s2 4p6 4d2 5s2
 
 Converged in 38 iterations to a total energy of -1285.4931 eV
 
 
 Pseudo atomic calculation performed for Sn 4d10 5s2 5p2
 
 Converged in 48 iterations to a total energy of -2044.5414 eV
 
 
 Pseudo atomic calculation performed for La 5s2 5p6 5d1 6s2
 
 Converged in 34 iterations to a total energy of -968.0372 eV
 
 Calculation parallelised over 56 processes.
 Data is distributed by G-vector(4-way) and k-point(14-way)

 ************************************ Title ************************************
 nmr testing

 ***************************** General Parameters ******************************
  
 output verbosity                               : normal  (1)
 write checkpoint data to                       : 082.check
 type of calculation                            : Magnetic Resonance
 stress calculation                             : on
 density difference calculation                 : off
 electron localisation func (ELF) calculation   : off
 Hirshfeld analysis                             : off
 unlimited duration calculation
 timing information                             : on
 memory usage estimate                          : on
 write final potential to formatted file        : off
 write final density to formatted file          : off
 write structure in CIF formatted file          : on
 write structure in CELL formatted file         : on
 write BibTeX reference list                    : on
 write OTFG pseudopotential files               : on
 checkpoint writing                             : both castep_bin and check files
  
 output         length unit                     : A
 output           mass unit                     : amu
 output           time unit                     : ps
 output         charge unit                     : e
 output           spin unit                     : hbar/2
 output         energy unit                     : eV
 output          force unit                     : eV/A
 output       velocity unit                     : A/ps
 output       pressure unit                     : GPa
 output     inv_length unit                     : 1/A
 output      frequency unit                     : cm-1
 output force constant unit                     : eV/A**2
 output         volume unit                     : A**3
 output   IR intensity unit                     : (D/A)**2/amu
 output         dipole unit                     : D
 output         efield unit                     : eV/A/e
 output        entropy unit                     : J/mol/K
  
 wavefunctions paging                           : none
 random number generator seed                   : randomised (45118828)
 data distribution                              : optimal for this architecture
 optimization strategy                          : maximize speed(+++)

 *********************** Exchange-Correlation Parameters ***********************
  
 using functional                               : Perdew Burke Ernzerhof
 relativistic treatment                         : ZORA
 DFT+D: Semi-empirical dispersion correction    : off

 ************************* Pseudopotential Parameters **************************
  
 pseudopotential representation                 : reciprocal space
 <beta|phi> representation                      : reciprocal space
 spin-orbit coupling                            : off

 **************************** Basis Set Parameters *****************************
  
 plane wave basis set cut-off                   :   816.3416   eV
 size of standard grid                          :     1.7500
 size of   fine   gmax                          :    25.6161   1/A
 finite basis set correction                    : automatic
 number of sample energies                      :          3
           sample  spacing                      :     5.0000   eV

 **************************** Electronic Parameters ****************************
  
 number of  electrons                           :  720.0    
 net charge of system                           :  0.000    
 treating system as non-spin-polarized
 number of bands                                :        432

 ********************* Electronic Minimization Parameters **********************
  
 Method: Treating system as metallic with density mixing treatment of electrons,
         and number of  SD  steps               :          1
         and number of  CG  steps               :          4
  
 total energy / atom convergence tol.           : 0.1000E-08   eV
 eigen-energy convergence tolerance             : 0.2444E-09   eV
 max force / atom convergence tol.              : ignored
 convergence tolerance window                   :          3   cycles
 max. number of SCF cycles                      :         50
 number of fixed-spin iterations                :         10
 smearing scheme                                : Gaussian
 smearing width                                 : 0.2000       eV
 Fermi energy convergence tolerance             : 0.2721E-13   eV
 periodic dipole correction                     : NONE

 ************************** Density Mixing Parameters **************************
  
 density-mixing scheme                          : Broyden
 max. length of mixing history                  :         20
 charge density mixing amplitude                : 0.8000    
 cut-off energy for mixing                      :  816.3       eV

 *********************** Population Analysis Parameters ************************
  
 Population analysis with cutoff                :  3.000       A

 ************************ Magnetic Resonance Parameters ************************
  
 Magnetic Resonance Property                    : Chemical Shielding + EFG
 Position Operator Method                       : crystal
 max. number of MagRes CG steps                 :        250
 convergence tolerance window                   :          2   cycles
 energy convergence tolerance                   : 0.1000E-11   eV
 band convergence tolerance                     : 0.1000E-08   eV

 *******************************************************************************
  
 
                           -------------------------------
                                      Unit Cell
                           -------------------------------
        Real Lattice(A)                      Reciprocal Lattice(1/A)
  10.9028340   0.0065496  -0.0003727        0.5762894  -0.0003463   0.0000195
   0.0065497  10.9001631  -0.0065056       -0.0003463   0.5764308   0.0003440
  -0.0003728  -0.0065059  10.9018512        0.0000195   0.0003440   0.5763413
 
                       Lattice parameters(A)       Cell Angles
                    a =   10.902836          alpha =   90.068390
                    b =   10.900167          beta  =   90.003938
                    c =   10.901853          gamma =   89.931152
 
                       Current cell volume = 1295.604168       A**3
 
                           -------------------------------
                                     Cell Contents
                           -------------------------------
                         Total number of ions in cell =   88
                      Total number of species in cell =    4
                        Max number of any one species =   56
 
            xxxxxxxxxxxxxxxxxxxxxxxxxxxxxxxxxxxxxxxxxxxxxxxxxxxxxxxxxxxx
            x  Element    Atom        Fractional coordinates of atoms  x
            x            Number           u          v          w      x
            x----------------------------------------------------------x
            x  O            1         0.125263   0.125135   0.125225   x 
            x  O            2         0.624762   0.125341   0.624859   x 
            x  O            3         0.125523   0.624639   0.624889   x 
            x  O            4         0.624703   0.624909   0.125193   x 
            x  O            5         0.874875   0.374640   0.374722   x 
            x  O            6         0.874896   0.875361   0.875523   x 
            x  O            7         0.375188   0.374886   0.875280   x 
            x  O            8         0.375177   0.875090   0.374681   x 
            x  O            9         0.420094   0.125243   0.124306   x 
            x  O           10         0.329804   0.123832   0.625183   x 
            x  O           11         0.831135   0.624962   0.624959   x 
            x  O           12         0.919117   0.624951   0.125015   x 
            x  O           13         0.124335   0.420598   0.123441   x 
            x  O           14         0.625096   0.329790   0.124621   x 
            x  O           15         0.625211   0.830773   0.624754   x 
            x  O           16         0.125211   0.919369   0.624399   x 
            x  O           17         0.124400   0.123704   0.420271   x 
            x  O           18         0.123928   0.626101   0.328727   x 
            x  O           19         0.625619   0.625096   0.830290   x 
            x  O           20         0.624912   0.125104   0.920345   x 
            x  O           21         0.874767   0.669239   0.375191   x 
            x  O           22         0.874415   0.580631   0.875226   x 
            x  O           23         0.373479   0.079379   0.874409   x 
            x  O           24         0.374601   0.170222   0.375060   x 
            x  O           25         0.170281   0.374930   0.374826   x 
            x  O           26         0.080261   0.874929   0.375615   x 
            x  O           27         0.578746   0.873896   0.873946   x 
            x  O           28         0.670315   0.376262   0.874488   x 
            x  O           29         0.875258   0.376200   0.079851   x 
            x  O           30         0.374265   0.374777   0.170085   x 
            x  O           31         0.375013   0.875025   0.669084   x 
            x  O           32         0.874959   0.875053   0.581090   x 
            x  O           33         0.670447   0.874493   0.376326   x 
            x  O           34         0.080398   0.374514   0.875160   x 
            x  O           35         0.376022   0.670408   0.874417   x 
            x  O           36         0.875490   0.079628   0.376413   x 
            x  O           37         0.874980   0.374970   0.669288   x 
            x  O           38         0.374380   0.875164   0.080697   x 
            x  O           39         0.124076   0.329374   0.625881   x 
            x  O           40         0.625412   0.920124   0.124755   x 
            x  O           41         0.919309   0.125014   0.624941   x 
            x  O           42         0.330682   0.624823   0.124382   x 
            x  O           43         0.124304   0.624119   0.921034   x 
            x  O           44         0.625136   0.124722   0.329535   x 
            x  O           45         0.420660   0.626202   0.625333   x 
            x  O           46         0.830143   0.125047   0.125120   x 
            x  O           47         0.125123   0.125502   0.830415   x 
            x  O           48         0.626319   0.625517   0.420426   x 
            x  O           49         0.875895   0.170630   0.874102   x 
            x  O           50         0.374638   0.579878   0.375300   x 
            x  O           51         0.171004   0.875860   0.874313   x 
            x  O           52         0.579536   0.375251   0.375078   x 
            x  O           53         0.875342   0.873807   0.170682   x 
            x  O           54         0.375030   0.374926   0.580092   x 
            x  O           55         0.124400   0.829583   0.126044   x 
            x  O           56         0.626378   0.420394   0.625424   x 
            x  Zr           1         0.500605   0.500536   0.500399   x 
            x  Zr           2         0.250336   0.750051   1.000242   x 
            x  Zr           3         0.750971   0.999346   0.251532   x 
            x  Zr           4         0.750978   0.251434   0.999357   x 
            x  Zr           5         0.499343   0.999548   0.999578   x 
            x  Zr           6         0.248777   0.248539   0.500480   x 
            x  Zr           7         0.248953   0.500547   0.248449   x 
            x  Zr           8         0.499802   0.249998   0.249645   x 
            x  Sn           1         1.000006   0.249999   0.750014   x 
            x  Sn           2         0.249529   0.000470   0.749236   x 
            x  Sn           3         0.999214   0.750381   0.250640   x 
            x  Sn           4         0.750161   0.500158   0.749896   x 
            x  Sn           5         0.750199   0.749955   0.500247   x 
            x  Sn           6         0.999197   0.499599   0.999413   x 
            x  Sn           7         0.500640   0.749621   0.749217   x 
            x  Sn           8         0.999935   0.999772   0.500273   x 
            x  La           1         0.999868   0.000165   0.000446   x 
            x  La           2         0.749572   0.250048   0.499660   x 
            x  La           3         0.250495   0.499822   0.749846   x 
            x  La           4         0.499745   0.749997   0.249749   x 
            x  La           5         0.250576   0.749548   0.499750   x 
            x  La           6         0.749596   0.499727   0.250039   x 
            x  La           7         0.500054   0.250138   0.750017   x 
            x  La           8         0.000475   0.499576   0.499719   x 
            x  La           9         0.749720   0.750453   0.000541   x 
            x  La          10         0.250267  -0.000094   0.249821   x 
            x  La          11         0.250355   0.249957   0.000271   x 
            x  La          12         0.749671   0.000444   0.750504   x 
            x  La          13         0.499982   0.000314   0.499649   x 
            x  La          14         0.000392   0.750000   0.750392   x 
            x  La          15         0.000018   0.249860   0.250055   x 
            x  La          16         0.499855   0.500074   0.000206   x 
            xxxxxxxxxxxxxxxxxxxxxxxxxxxxxxxxxxxxxxxxxxxxxxxxxxxxxxxxxxxx
 
 
                         No user defined ionic velocities
 
                           -------------------------------
                                   Details of Species
                           -------------------------------
 
                               Mass of species in AMU
                                    O   15.9994000
                                    Zr   91.2240000
                                    Sn  118.7100000
                                    La  138.9055000
 
                          Electric Quadrupole Moment (Barn)
                                    O   -0.0255800 Isotope 17
                                    Zr   -0.1760000 Isotope 91
                                    Sn    1.0000000 No Isotope Defined
                                    La    0.2000000 Isotope139
 
                          Files used for pseudopotentials:
                                    O 2|1.1|15|18|20|20:21(qc=7)
                                    Zr 3|2.1|7|8|9|40U:50:41:42
                                    Sn 3|2.2|7|8|9|50:51:42
                                    La 2|2.3|5|6|7|50U:60:51:52(qc=4.5)
 
                           -------------------------------
                              k-Points For BZ Sampling
                           -------------------------------
                       MP grid size for SCF calculation is  3  3  3
                            with an offset of   0.000  0.000  0.000
                       Number of kpoints used =            14
 
                           -------------------------------
                               Symmetry and Constraints
                           -------------------------------
 
                      Maximum deviation from symmetry =  0.00000         ANG
 
         There are no symmetry operations specified or generated for this cell
                      Number of ionic constraints     =           3
                      Point group of crystal =     1: C1, 1, 1
                      Space group of crystal =     1: P1, P 1
 
 
                         Centre of mass is constrained
             Set iprint > 1 for details of linear ionic constraints
 
                         Number of cell constraints= 0
                         Cell constraints are:  1 2 3 4 5 6
 
                         External pressure/stress (GPa)
                          0.00000   0.00000   0.00000
                                    0.00000   0.00000
                                              0.00000
  
+---------------- MEMORY AND SCRATCH DISK ESTIMATES PER PROCESS --------------+
|                                                     Memory          Disk    |
| Baseline code, static data and system overhead      322.0 MB         0.0 MB |
| BLAS internal memory storage                          0.0 MB         0.0 MB |
| Model and support data                             1319.3 MB         0.0 MB |
| Electronic energy minimisation requirements         381.9 MB         0.0 MB |
| Force calculation requirements                       24.1 MB         0.0 MB |
| Stress calculation requirements                      28.3 MB         0.0 MB |
|                                               ----------------------------- |
| Approx. total storage required per process         2023.2 MB         0.0 MB |
|                                                                             |
| Requirements will fluctuate during execution and may exceed these estimates |
+-----------------------------------------------------------------------------+
Calculating finite basis set correction with  3 cut-off energies.
Calculating total energy with cut-off of  806.342eV.
------------------------------------------------------------------------ <-- SCF
SCF loop      Energy           Fermi           Energy gain       Timer   <-- SCF
                               energy          per atom          (sec)   <-- SCF
------------------------------------------------------------------------ <-- SCF
Initial  -5.62642864E+004  0.00000000E+000                        74.68  <-- SCF
      1  -6.45282645E+004  7.58699840E+000   9.39088418E+001     215.75  <-- SCF
      2  -6.70871478E+004  6.66256425E+000   2.90782199E+001     308.35  <-- SCF
      3  -6.71704472E+004  6.41248815E+000   9.46583498E-001     412.67  <-- SCF
      4  -6.71648740E+004  7.65423496E+000  -6.33321305E-002     542.98  <-- SCF
      5  -6.70612760E+004  6.96951574E+000  -1.17724962E+000     670.49  <-- SCF
      6  -6.70626284E+004  6.84999091E+000   1.53686539E-002     831.84  <-- SCF
      7  -6.70623068E+004  6.93950028E+000  -3.65460816E-003     969.94  <-- SCF
      8  -6.70623865E+004  6.94183940E+000   9.05663225E-004    1152.36  <-- SCF
      9  -6.70624080E+004  6.94008955E+000   2.43474426E-004    1301.02  <-- SCF
     10  -6.70624074E+004  6.93745441E+000  -5.91522813E-006    1440.07  <-- SCF
     11  -6.70624069E+004  6.93843899E+000  -6.20960456E-006    1582.99  <-- SCF
     12  -6.70624071E+004  6.93818000E+000   2.25629834E-006    1735.21  <-- SCF
     13  -6.70624071E+004  6.93743398E+000  -6.05178056E-008    1868.45  <-- SCF
     14  -6.70624070E+004  6.93713204E+000  -5.00214136E-007    2007.38  <-- SCF
     15  -6.70624070E+004  6.93662726E+000  -1.34492106E-007    2155.16  <-- SCF
     16  -6.70624070E+004  6.93641942E+000  -4.02164922E-011    2284.54  <-- SCF
     17  -6.70624070E+004  6.93634904E+000  -5.87357650E-010    2405.03  <-- SCF
------------------------------------------------------------------------ <-- SCF
 
Final energy, E             =  -67062.40702207     eV
Final free energy (E-TS)    =  -67062.40702207     eV
(energies not corrected for finite basis set)
 
NB est. 0K energy (E-0.5TS)      =  -67062.40702207     eV
 
Calculating total energy with cut-off of  811.342eV.
------------------------------------------------------------------------ <-- SCF
SCF loop      Energy           Fermi           Energy gain       Timer   <-- SCF
                               energy          per atom          (sec)   <-- SCF
------------------------------------------------------------------------ <-- SCF
Initial  -6.70624070E+004  0.00000000E+000                      2440.90  <-- SCF
      1  -6.70624095E+004  6.93609153E+000   2.80227339E-005    2555.06  <-- SCF
      2  -6.70624095E+004  6.93609153E+000   1.15221656E-009    2667.87  <-- SCF
      3  -6.70624095E+004  6.93618086E+000   1.97758273E-008    2789.64  <-- SCF
      4  -6.70624095E+004  6.93618080E+000  -1.51498057E-008    2907.06  <-- SCF
      5  -6.70624095E+004  6.93620442E+000  -3.80088036E-010    3001.94  <-- SCF
      6  -6.70624095E+004  6.93623817E+000  -3.59276705E-010    3098.94  <-- SCF
------------------------------------------------------------------------ <-- SCF
 
Final energy, E             =  -67062.40948815     eV
Final free energy (E-TS)    =  -67062.40948815     eV
(energies not corrected for finite basis set)
 
NB est. 0K energy (E-0.5TS)      =  -67062.40948815     eV
 
Calculating total energy with cut-off of  816.342eV.
------------------------------------------------------------------------ <-- SCF
SCF loop      Energy           Fermi           Energy gain       Timer   <-- SCF
                               energy          per atom          (sec)   <-- SCF
------------------------------------------------------------------------ <-- SCF
Initial  -6.70624095E+004  0.00000000E+000                      3135.07  <-- SCF
      1  -6.70624124E+004  6.93631581E+000   3.35562265E-005    3248.73  <-- SCF
      2  -6.70624124E+004  6.93631581E+000   2.81515445E-010    3352.15  <-- SCF
      3  -6.70624124E+004  6.93628305E+000   2.04116978E-008    3451.09  <-- SCF
      4  -6.70624124E+004  6.93627686E+000   4.74020263E-010    3545.22  <-- SCF
      5  -6.70624124E+004  6.93626753E+000  -4.40553392E-010    3633.86  <-- SCF
------------------------------------------------------------------------ <-- SCF
 
Final energy, E             =  -67062.41244287     eV
Final free energy (E-TS)    =  -67062.41244287     eV
(energies not corrected for finite basis set)
 
NB est. 0K energy (E-0.5TS)      =  -67062.41244287     eV
 
 For future reference: finite basis dEtot/dlog(Ecut) =      -0.439438eV
 Total energy corrected for finite basis set =  -67062.412435 eV
 
  =====================================================================
  +       Calculation of Nuclear Magnetic Resonance Parameters        +
  + ================================================================= +
 
  Starting Calculation of Electric Field Gradient Tensors         |<-- EFG
  +---------------- MEMORY AND SCRATCH DISK ESTIMATES PER PROCESS --------------+
  |                                                     Memory          Disk    |
  | Model and support data                             1317.0 MB         0.0 MB |
  | NMR EFG calculation requirements                    367.6 MB         0.0 MB |
  |                                               ----------------------------- |
  | Approx. total storage required per process         1684.7 MB         0.0 MB |
  |                                                                             |
  | Requirements will fluctuate during execution and may exceed these estimates |
  +-----------------------------------------------------------------------------+
  Total Time for EFG Tensors                     433.35 sec       |<-- EFG
 
  Starting Calculation of Chemical Shielding Tensors              |<-- NMR
  +---------------- MEMORY AND SCRATCH DISK ESTIMATES PER PROCESS --------------+
  |                                                     Memory          Disk    |
  | Model and support data                             1317.0 MB         0.0 MB |
  | NMR chemical shift calculation requirements         564.5 MB         0.0 MB |
  |                                               ----------------------------- |
  | Approx. total storage required per process         1881.5 MB         0.0 MB |
  |                                                                             |
  | Requirements will fluctuate during execution and may exceed these estimates |
  +-----------------------------------------------------------------------------+
  Starting k-point:   1 of   1                                    |<-- NMR
  Total Time for step 1 of 6:                   3330.95 sec       |<-- NMR
  Total Time for step 2 of 6:                   3303.11 sec       |<-- NMR
  Total Time for step 3 of 6:                   3309.77 sec       |<-- NMR
  Total Time for step 4 of 6:                   3301.87 sec       |<-- NMR
  Total Time for step 5 of 6:                   3307.37 sec       |<-- NMR
  Total Time for step 6 of 6:                   3318.56 sec       |<-- NMR
  Total Time for Chemical Shielding Tensors    29495.13 sec       |<-- NMR
 
  ========================================================================
  |           Chemical Shielding and Electric Field Gradient Tensors     |
  |----------------------------------------------------------------------|
  |     Nucleus                Shielding tensor             EFG Tensor   |
  |  Species       Ion    Iso(ppm)   Aniso(ppm)  Asym    Cq(MHz)    Eta  |
  |    O           1     -317.61     -16.44      0.48   6.051E-02   0.93 |
  |    O           2     -317.75     -11.62      0.64  -7.927E-02   0.47 |
  |    O           3     -319.61     -10.33      0.44  -9.422E-02   0.21 |
  |    O           4     -317.92       9.11      0.42  -5.810E-02   0.56 |
  |    O           5     -317.67     -12.26      0.82  -8.378E-02   0.27 |
  |    O           6     -319.62     -10.76      0.44  -9.407E-02   0.23 |
  |    O           7     -317.73     -15.80      0.44   6.490E-02   0.69 |
  |    O           8     -317.94       9.26      0.47  -5.884E-02   0.55 |
  |    O           9     -163.51     158.38      0.75   1.058E+00   0.84 |
  |    O          10      -89.99      84.36      0.10  -3.255E+00   0.10 |
  |    O          11      -11.58      57.54      0.93   3.783E+00   0.95 |
  |    O          12       -5.57      68.40      0.80   3.824E+00   0.90 |
  |    O          13      -90.08      89.46      0.05  -3.194E+00   0.10 |
  |    O          14     -163.82     154.25      0.74   1.050E+00   0.78 |
  |    O          15      -11.18      58.31      0.75   3.863E+00   0.88 |
  |    O          16       -9.37      56.75      0.83   3.846E+00   0.92 |
  |    O          17      -93.49      89.42      0.08  -3.193E+00   0.10 |
  |    O          18      -84.62      84.40      0.06  -3.273E+00   0.08 |
  |    O          19      -14.51      60.78      0.47   3.900E+00   0.85 |
  |    O          20     -160.54     137.43      0.77   1.049E+00   0.63 |
  |    O          21      -11.30      58.27      0.75   3.863E+00   0.88 |
  |    O          22       -9.40      56.69      0.83   3.846E+00   0.92 |
  |    O          23      -88.62      80.49      0.06  -3.211E+00   0.12 |
  |    O          24     -163.86     153.12      0.74   1.044E+00   0.79 |
  |    O          25     -160.40     138.61      0.76   1.049E+00   0.63 |
  |    O          26      -14.04      60.87      0.46   3.905E+00   0.85 |
  |    O          27      -84.62      82.38      0.06  -3.273E+00   0.09 |
  |    O          28      -93.18      85.03      0.09  -3.200E+00   0.11 |
  |    O          29      -90.31      88.45      0.09  -3.249E+00   0.09 |
  |    O          30     -163.45     159.02      0.74   1.050E+00   0.86 |
  |    O          31       -6.11      68.49      0.80   3.820E+00   0.90 |
  |    O          32      -10.98      58.12      0.90   3.786E+00   0.95 |
  |    O          33      -92.89      85.36      0.15  -3.224E+00   0.11 |
  |    O          34      -14.52      57.88      0.52   3.897E+00   0.84 |
  |    O          35      -89.40      85.93      0.17  -3.167E+00   0.09 |
  |    O          36      -91.33      87.72      0.07  -3.225E+00   0.10 |
  |    O          37      -13.58      58.13      0.70   3.862E+00   0.89 |
  |    O          38     -165.42     156.56      0.85   1.026E+00   0.89 |
  |    O          39      -88.45      83.53      0.02  -3.261E+00   0.08 |
  |    O          40     -162.10     143.84      0.77   1.024E+00   0.71 |
  |    O          41      -12.89      58.30      0.70   3.867E+00   0.89 |
  |    O          42     -165.72     158.08      0.85   1.036E+00   0.87 |
  |    O          43      -84.68      85.31      0.21  -3.163E+00   0.05 |
  |    O          44     -163.17     154.12      0.74   1.070E+00   0.76 |
  |    O          45      -87.19      80.59      0.13  -3.296E+00   0.10 |
  |    O          46     -161.94     137.13      0.77   1.022E+00   0.64 |
  |    O          47      -15.07      57.62      0.53   3.893E+00   0.84 |
  |    O          48      -91.70      79.75      0.16  -3.236E+00   0.12 |
  |    O          49      -88.40      83.22      0.02  -3.261E+00   0.08 |
  |    O          50     -162.10     143.91      0.77   1.023E+00   0.71 |
  |    O          51      -85.38      86.05      0.21  -3.157E+00   0.05 |
  |    O          52     -163.18     153.00      0.74   1.073E+00   0.75 |
  |    O          53      -87.17      82.29      0.12  -3.297E+00   0.10 |
  |    O          54     -162.13     135.94      0.78   1.019E+00   0.64 |
  |    O          55      -89.14      84.48      0.17  -3.169E+00   0.09 |
  |    O          56      -90.02      78.85      0.08  -3.241E+00   0.12 |
  |    Zr          1     1609.93    -114.50      0.06  -3.743E+01   0.09 |
  |    Zr          2     1624.11    -125.35      0.14  -3.620E+01   0.08 |
  |    Zr          3     1609.08    -114.51      0.08  -3.760E+01   0.09 |
  |    Zr          4     1609.84    -113.21      0.03  -3.747E+01   0.05 |
  |    Zr          5     1624.49    -120.48      0.16  -3.840E+01   0.05 |
  |    Zr          6     1609.76    -113.13      0.04  -3.747E+01   0.04 |
  |    Zr          7     1624.01    -120.69      0.15  -3.856E+01   0.05 |
  |    Zr          8     1624.26    -116.00      0.06  -4.081E+01   0.05 |
  |    Sn          1     3253.67     -63.61      0.48   1.228E+02   0.27 |
  |    Sn          2     3256.36     -60.64      0.28   1.252E+02   0.17 |
  |    Sn          3     3255.60     -64.14      0.06   1.268E+02   0.35 |
  |    Sn          4     3254.26     -64.63      0.43   1.230E+02   0.09 |
  |    Sn          5     3255.16     -63.56      0.38   1.229E+02   0.06 |
  |    Sn          6     3256.81     -60.60      0.28   1.253E+02   0.16 |
  |    Sn          7     3255.96     -63.55      0.07   1.271E+02   0.35 |
  |    Sn          8     3255.14     -65.01      0.46   1.231E+02   0.08 |
  |    La          1     4657.11     649.94      0.09  -8.194E+01   0.15 |
  |    La          2     4652.75     633.15      0.01  -7.962E+01   0.02 |
  |    La          3     4656.99     649.62      0.09  -8.201E+01   0.15 |
  |    La          4     4749.36     868.58      0.05  -8.793E+01   0.09 |
  |    La          5     4602.23     506.00      0.09  -7.588E+01   0.08 |
  |    La          6     4652.73     631.14      0.01  -7.988E+01   0.02 |
  |    La          7     4705.35     776.24      0.11  -8.551E+01   0.15 |
  |    La          8     4611.07     504.29      0.09  -7.740E+01   0.08 |
  |    La          9     4602.20     505.98      0.09  -7.588E+01   0.08 |
  |    La         10     4701.23     761.35      0.03  -8.316E+01   0.06 |
  |    La         11     4648.59     638.99      0.00  -7.824E+01   0.01 |
  |    La         12     4610.98     504.51      0.09  -7.748E+01   0.08 |
  |    La         13     4652.68     630.54      0.01  -7.981E+01   0.02 |
  |    La         14     4571.56     368.38      0.04  -7.534E+01   0.10 |
  |    La         15     4707.03     786.23      0.10  -8.605E+01   0.14 |
  |    La         16     4701.04     760.81      0.03  -8.311E+01   0.06 |
  ========================================================================
 
 *********************** Forces ***********************
 *                                                    *
 *            Cartesian components (eV/A)             *
 * -------------------------------------------------- *
 *                   x            y            z      *
 *                                                    *
 * O         1      0.00611      0.00210     -0.00057 *
 * O         2      0.00250     -0.00064     -0.00623 *
 * O         3      0.00307      0.00085     -0.00458 *
 * O         4     -0.00230     -0.00157     -0.00495 *
 * O         5     -0.00546     -0.00278      0.00185 *
 * O         6     -0.00534     -0.00071      0.00294 *
 * O         7     -0.00172      0.00116      0.00770 *
 * O         8     -0.00267      0.00115      0.00029 *
 * O         9      0.01005     -0.00075     -0.00221 *
 * O        10     -0.01358     -0.02324      0.01471 *
 * O        11     -0.00657     -0.00181      0.00275 *
 * O        12      0.00541     -0.00406      0.00372 *
 * O        13     -0.02621      0.00032     -0.02263 *
 * O        14      0.00291     -0.00132     -0.00524 *
 * O        15     -0.00515     -0.00334      0.00355 *
 * O        16      0.00535      0.00960     -0.00260 *
 * O        17     -0.02964     -0.03098      0.00316 *
 * O        18     -0.02194      0.01567     -0.01165 *
 * O        19     -0.00267      0.00078      0.00054 *
 * O        20      0.00664      0.01728      0.00921 *
 * O        21      0.00176      0.00561     -0.00467 *
 * O        22     -0.01116     -0.00934     -0.00192 *
 * O        23     -0.00706     -0.00464     -0.00610 *
 * O        24     -0.00951      0.00397     -0.00433 *
 * O        25     -0.00435     -0.01317     -0.01247 *
 * O        26     -0.00333      0.00446     -0.00048 *
 * O        27     -0.00627     -0.01532     -0.01548 *
 * O        28      0.01222      0.02601     -0.01184 *
 * O        29      0.02917      0.02705     -0.00309 *
 * O        30     -0.00709      0.00126      0.00634 *
 * O        31      0.00388     -0.00052      0.00325 *
 * O        32     -0.00353      0.00008     -0.01058 *
 * O        33      0.01015     -0.01025      0.01459 *
 * O        34     -0.00620     -0.00876      0.00166 *
 * O        35      0.01174      0.00275     -0.01739 *
 * O        36      0.02535     -0.00372      0.02597 *
 * O        37      0.00040     -0.00390      0.00669 *
 * O        38      0.00099      0.00372     -0.01262 *
 * O        39     -0.02496     -0.01305      0.02222 *
 * O        40      0.00550      0.01000      0.02014 *
 * O        41      0.00736      0.00305     -0.00263 *
 * O        42     -0.01794     -0.00231     -0.00902 *
 * O        43     -0.00793     -0.01680      0.00222 *
 * O        44      0.00752     -0.00198     -0.00766 *
 * O        45      0.01149      0.01224      0.01587 *
 * O        46      0.00489      0.00860      0.01337 *
 * O        47     -0.00216      0.00854     -0.00478 *
 * O        48      0.00189      0.00681      0.00487 *
 * O        49      0.02569      0.01326     -0.01818 *
 * O        50     -0.00407     -0.00963     -0.01663 *
 * O        51     -0.00196      0.01774     -0.01303 *
 * O        52     -0.00913     -0.00019     -0.00124 *
 * O        53      0.01888     -0.01193      0.01909 *
 * O        54     -0.00808     -0.01282     -0.00467 *
 * O        55     -0.01543     -0.00618      0.01029 *
 * O        56      0.00945      0.00689      0.00739 *
 * Zr        1     -0.02605     -0.01012     -0.00366 *
 * Zr        2      0.00902      0.01669     -0.01974 *
 * Zr        3      0.01100      0.00556     -0.00229 *
 * Zr        4      0.00975     -0.00352      0.00310 *
 * Zr        5      0.02987      0.01119     -0.00403 *
 * Zr        6     -0.00454     -0.00008     -0.00273 *
 * Zr        7     -0.01268     -0.00823     -0.00031 *
 * Zr        8     -0.00091     -0.00031     -0.00045 *
 * Sn        1     -0.00112      0.00036      0.00030 *
 * Sn        2      0.00271     -0.01312      0.01611 *
 * Sn        3      0.00370     -0.00409     -0.00434 *
 * Sn        4      0.00265      0.00801     -0.00963 *
 * Sn        5      0.00263     -0.01025      0.00994 *
 * Sn        6      0.00661      0.02630     -0.01488 *
 * Sn        7     -0.00191      0.00479      0.00120 *
 * Sn        8     -0.00217     -0.02172      0.02120 *
 * La        1      0.00446     -0.00252     -0.00537 *
 * La        2      0.00212      0.01604      0.01681 *
 * La        3     -0.00343      0.00047     -0.00267 *
 * La        4      0.01732     -0.00163      0.01909 *
 * La        5      0.00150     -0.00124      0.00114 *
 * La        6      0.00489      0.01876      0.01321 *
 * La        7     -0.00314     -0.00318     -0.00104 *
 * La        8     -0.00192      0.00285      0.00104 *
 * La        9     -0.00085      0.00028     -0.00044 *
 * La       10     -0.00856     -0.01006     -0.00065 *
 * La       11     -0.00535     -0.01499     -0.01795 *
 * La       12     -0.00324     -0.00128      0.00476 *
 * La       13     -0.00539     -0.00860      0.01154 *
 * La       14      0.00401     -0.00070      0.00453 *
 * La       15     -0.00130      0.00394     -0.00317 *
 * La       16      0.01335      0.00515     -0.01553 *
 *                                                    *
 ******************************************************
 
 ***************** Stress Tensor *****************
 *                                               *
 *          Cartesian components (GPa)           *
 * --------------------------------------------- *
 *             x             y             z     *
 *                                               *
 *  x      0.063991      0.026273     -0.003416  *
 *  y      0.026273      0.046761     -0.025723  *
 *  z     -0.003416     -0.025723      0.046805  *
 *                                               *
 *  Pressure:   -0.0525                          *
 *                                               *
 *************************************************
 
 Pseudo atomic calculation performed for O 2s2 2p4
 
 Converged in 39 iterations to a total energy of -432.6554 eV
 
 
 Pseudo atomic calculation performed for Zr 4s2 4p6 4d2 5s2
 
 Converged in 38 iterations to a total energy of -1285.4931 eV
 
 
 Pseudo atomic calculation performed for Sn 4d10 5s2 5p2
 
 Converged in 48 iterations to a total energy of -2044.5414 eV
 
 
 Pseudo atomic calculation performed for La 5s2 5p6 5d1 6s2
 
 Converged in 34 iterations to a total energy of -968.0372 eV
 
Charge spilling parameter for spin component 1 = 0.24%
 
     Atomic Populations (Mulliken)
     -----------------------------
Species   Ion     s      p      d      f     Total  Charge (e)
==============================================================
  O        1     1.87   5.00   0.00   0.00   6.87    -0.87
  O        2     1.87   5.00   0.00   0.00   6.87    -0.87
  O        3     1.87   5.00   0.00   0.00   6.87    -0.87
  O        4     1.87   5.00   0.00   0.00   6.87    -0.87
  O        5     1.87   5.00   0.00   0.00   6.87    -0.87
  O        6     1.87   5.00   0.00   0.00   6.87    -0.87
  O        7     1.87   5.00   0.00   0.00   6.87    -0.87
  O        8     1.87   5.00   0.00   0.00   6.87    -0.87
  O        9     1.86   4.94   0.00   0.00   6.80    -0.80
  O       10     1.87   4.99   0.00   0.00   6.86    -0.86
  O       11     1.88   5.02   0.00   0.00   6.91    -0.91
  O       12     1.88   5.02   0.00   0.00   6.91    -0.91
  O       13     1.87   4.99   0.00   0.00   6.86    -0.86
  O       14     1.86   4.95   0.00   0.00   6.80    -0.80
  O       15     1.88   5.02   0.00   0.00   6.91    -0.91
  O       16     1.88   5.02   0.00   0.00   6.91    -0.91
  O       17     1.87   4.99   0.00   0.00   6.86    -0.86
  O       18     1.87   4.99   0.00   0.00   6.86    -0.86
  O       19     1.88   5.02   0.00   0.00   6.91    -0.91
  O       20     1.86   4.95   0.00   0.00   6.80    -0.80
  O       21     1.88   5.02   0.00   0.00   6.91    -0.91
  O       22     1.88   5.02   0.00   0.00   6.91    -0.91
  O       23     1.87   4.99   0.00   0.00   6.86    -0.86
  O       24     1.86   4.94   0.00   0.00   6.80    -0.80
  O       25     1.86   4.95   0.00   0.00   6.80    -0.80
  O       26     1.88   5.02   0.00   0.00   6.91    -0.91
  O       27     1.87   4.99   0.00   0.00   6.86    -0.86
  O       28     1.87   4.99   0.00   0.00   6.86    -0.86
  O       29     1.87   4.99   0.00   0.00   6.86    -0.86
  O       30     1.86   4.94   0.00   0.00   6.80    -0.80
  O       31     1.88   5.02   0.00   0.00   6.91    -0.91
  O       32     1.88   5.02   0.00   0.00   6.91    -0.91
  O       33     1.87   4.99   0.00   0.00   6.86    -0.86
  O       34     1.88   5.02   0.00   0.00   6.91    -0.91
  O       35     1.87   4.99   0.00   0.00   6.86    -0.86
  O       36     1.87   4.99   0.00   0.00   6.86    -0.86
  O       37     1.88   5.02   0.00   0.00   6.91    -0.91
  O       38     1.86   4.95   0.00   0.00   6.80    -0.80
  O       39     1.87   4.99   0.00   0.00   6.86    -0.86
  O       40     1.86   4.95   0.00   0.00   6.80    -0.80
  O       41     1.88   5.02   0.00   0.00   6.91    -0.91
  O       42     1.86   4.95   0.00   0.00   6.80    -0.80
  O       43     1.87   4.99   0.00   0.00   6.86    -0.86
  O       44     1.86   4.95   0.00   0.00   6.80    -0.80
  O       45     1.87   4.99   0.00   0.00   6.86    -0.86
  O       46     1.86   4.95   0.00   0.00   6.80    -0.80
  O       47     1.88   5.02   0.00   0.00   6.91    -0.91
  O       48     1.87   4.99   0.00   0.00   6.86    -0.86
  O       49     1.87   4.99   0.00   0.00   6.86    -0.86
  O       50     1.86   4.95   0.00   0.00   6.80    -0.80
  O       51     1.87   4.99   0.00   0.00   6.86    -0.86
  O       52     1.86   4.95   0.00   0.00   6.80    -0.80
  O       53     1.87   4.99   0.00   0.00   6.86    -0.86
  O       54     1.86   4.95   0.00   0.00   6.80    -0.80
  O       55     1.87   4.99   0.00   0.00   6.86    -0.86
  O       56     1.87   4.99   0.00   0.00   6.86    -0.86
  Zr       1     2.37   6.49   1.92   0.00  10.77     1.23
  Zr       2     2.37   6.49   1.92   0.00  10.78     1.22
  Zr       3     2.37   6.49   1.92   0.00  10.78     1.22
  Zr       4     2.36   6.49   1.92   0.00  10.77     1.23
  Zr       5     2.37   6.47   1.92   0.00  10.76     1.24
  Zr       6     2.36   6.49   1.92   0.00  10.77     1.23
  Zr       7     2.37   6.47   1.92   0.00  10.76     1.24
  Zr       8     2.36   6.46   1.93   0.00  10.75     1.25
  Sn       1     1.05   1.31  10.00   0.00  12.36     1.64
  Sn       2     1.05   1.31  10.00   0.00  12.36     1.64
  Sn       3     1.05   1.31  10.00   0.00  12.36     1.64
  Sn       4     1.05   1.31  10.00   0.00  12.36     1.64
  Sn       5     1.05   1.31  10.00   0.00  12.36     1.64
  Sn       6     1.05   1.31  10.00   0.00  12.36     1.64
  Sn       7     1.05   1.31  10.00   0.00  12.36     1.64
  Sn       8     1.05   1.31  10.00   0.00  12.36     1.64
  La       1     2.07   6.17   1.19   0.00   9.44     1.56
  La       2     2.08   6.17   1.19   0.00   9.44     1.56
  La       3     2.07   6.17   1.19   0.00   9.44     1.56
  La       4     2.01   6.14   1.20   0.00   9.35     1.65
  La       5     2.11   6.19   1.19   0.00   9.49     1.51
  La       6     2.06   6.17   1.19   0.00   9.43     1.57
  La       7     2.03   6.16   1.19   0.00   9.38     1.62
  La       8     2.10   6.19   1.19   0.00   9.48     1.52
  La       9     2.11   6.19   1.19   0.00   9.49     1.51
  La      10     2.04   6.16   1.19   0.00   9.39     1.61
  La      11     2.07   6.17   1.19   0.00   9.43     1.57
  La      12     2.10   6.19   1.19   0.00   9.48     1.52
  La      13     2.06   6.17   1.19   0.00   9.43     1.57
  La      14     2.11   6.21   1.19   0.00   9.51     1.49
  La      15     2.03   6.16   1.20   0.00   9.38     1.62
  La      16     2.04   6.16   1.19   0.00   9.39     1.61
==============================================================
 
            Bond              Population      Length (A)
============================================================
         O 53 -- Sn 3              0.35        2.09574
         O 45 -- Sn 7              0.35        2.09585
         O 18 -- Sn 3              0.35        2.09926
         O 27 -- Sn 7              0.35        2.09938
         O 10 -- Sn 2              0.35        2.10011
         O 29 -- Sn 6              0.35        2.10037
         O 49 -- Sn 1              0.35        2.10129
         O 39 -- Sn 1              0.35        2.10134
         O 56 -- Sn 4              0.35        2.10201
         O 36 -- Sn 8              0.34        2.10276
         O 48 -- Sn 5              0.35        2.10302
         O 33 -- Sn 5              0.34        2.10366
         O 23 -- Sn 2              0.34        2.10428
         O 13 -- Sn 6              0.34        2.10499
         O 28 -- Sn 4              0.34        2.10570
         O 17 -- Sn 8              0.34        2.10581
         O 43 -- Sn 6              0.35        2.10720
         O 51 -- Sn 2              0.35        2.10822
         O 17 -- Zr 6              0.44        2.11105
         O 29 -- Zr 4              0.44        2.11116
         O 26 -- Sn 8              0.34        2.11154
         O 55 -- Sn 3              0.34        2.11167
         O 19 -- Sn 4              0.34        2.11174
         O 38 -- Zr 2              0.42        2.11177
         O 35 -- Sn 7              0.34        2.11197
         O 36 -- Zr 3              0.44        2.11238
         O 13 -- Zr 7              0.45        2.11246
         O 42 -- Zr 2              0.42        2.11272
         O 22 -- Sn 6              0.34        2.11275
         O 16 -- Sn 8              0.34        2.11294
         O 52 -- Zr 1              0.43        2.11305
         O 9  -- Zr 5              0.43        2.11319
         O 42 -- Zr 7              0.41        2.11326
         O 44 -- Zr 3              0.43        2.11328
         O 30 -- Zr 7              0.43        2.11395
         O 47 -- Sn 1              0.33        2.11398
         O 9  -- Zr 8              0.43        2.11418
         O 15 -- Sn 5              0.33        2.11423
         O 34 -- Sn 1              0.33        2.11423
         O 34 -- Sn 6              0.33        2.11437
         O 16 -- Sn 2              0.34        2.11438
         O 22 -- Sn 4              0.34        2.11455
         O 21 -- Sn 5              0.33        2.11467
         O 14 -- Zr 4              0.43        2.11487
         O 21 -- Sn 3              0.34        2.11494
         O 47 -- Sn 2              0.33        2.11500
         O 30 -- Zr 8              0.43        2.11513
         O 15 -- Sn 7              0.34        2.11524
         O 24 -- Zr 6              0.43        2.11540
         O 41 -- Sn 8              0.33        2.11575
         O 10 -- Zr 6              0.44        2.11608
         O 26 -- Sn 3              0.33        2.11624
         O 19 -- Sn 7              0.33        2.11625
         O 37 -- Sn 4              0.33        2.11640
         O 28 -- Zr 4              0.44        2.11644
         O 53 -- Zr 3              0.44        2.11683
         O 33 -- Zr 3              0.44        2.11690
         O 45 -- Zr 1              0.43        2.11753
         O 38 -- Zr 5              0.41        2.11755
         O 11 -- Sn 5              0.34        2.11773
         O 14 -- Zr 8              0.43        2.11808
         O 37 -- Sn 1              0.33        2.11814
         O 41 -- Sn 1              0.33        2.11840
         O 32 -- Sn 5              0.34        2.11844
         O 52 -- Zr 8              0.43        2.11847
         O 39 -- Zr 6              0.44        2.11856
         O 32 -- Sn 8              0.34        2.11861
         O 44 -- Zr 8              0.43        2.11865
         O 49 -- Zr 4              0.44        2.11891
         O 18 -- Zr 7              0.44        2.11892
         O 11 -- Sn 4              0.34        2.11960
         O 50 -- Zr 1              0.44        2.11987
         O 27 -- Zr 5              0.44        2.11992
         O 24 -- Zr 8              0.43        2.12011
         O 12 -- Sn 6              0.33        2.12062
         O 31 -- Sn 2              0.33        2.12081
         O 40 -- Zr 5              0.44        2.12150
         O 20 -- Zr 5              0.43        2.12155
         O 56 -- Zr 1              0.44        2.12155
         O 23 -- Zr 5              0.44        2.12182
         O 48 -- Zr 1              0.44        2.12184
         O 12 -- Sn 3              0.33        2.12268
         O 31 -- Sn 7              0.33        2.12271
         O 35 -- Zr 2              0.45        2.12312
         O 25 -- Zr 6              0.43        2.12331
         O 54 -- Zr 1              0.44        2.12401
         O 55 -- Zr 2              0.45        2.12423
         O 51 -- Zr 2              0.44        2.12483
         O 25 -- Zr 7              0.43        2.12515
         O 43 -- Zr 2              0.44        2.12594
         O 46 -- Zr 4              0.43        2.12701
         O 20 -- Zr 4              0.43        2.12813
         O 46 -- Zr 3              0.43        2.12819
         O 40 -- Zr 3              0.43        2.12830
         O 50 -- Zr 7              0.43        2.13019
         O 54 -- Zr 6              0.43        2.13248
         O 5  -- La 15             0.18        2.35587
         O 8  -- La 4              0.19        2.35589
         O 4  -- La 4              0.19        2.35594
         O 2  -- La 7              0.18        2.35633
         O 1  -- La 15             0.19        2.35719
         O 8  -- La 10             0.18        2.35760
         O 7  -- La 7              0.19        2.35767
         O 4  -- La 16             0.18        2.35815
         O 6  -- La 1              0.16        2.35833
         O 3  -- La 3              0.16        2.35861
         O 7  -- La 16             0.18        2.35885
         O 1  -- La 10             0.18        2.35913
         O 4  -- La 6              0.18        2.35971
         O 8  -- La 13             0.18        2.36020
         O 2  -- La 13             0.17        2.36032
         O 2  -- La 2              0.17        2.36042
         O 5  -- La 6              0.17        2.36052
         O 7  -- La 3              0.19        2.36062
         O 7  -- La 11             0.16        2.36066
         O 1  -- La 1              0.19        2.36114
         O 5  -- La 2              0.17        2.36117
         O 1  -- La 11             0.16        2.36137
         O 3  -- La 8              0.16        2.36198
         O 6  -- La 12             0.16        2.36226
         O 3  -- La 5              0.15        2.36285
         O 6  -- La 9              0.15        2.36286
         O 2  -- La 12             0.18        2.36306
         O 8  -- La 5              0.18        2.36355
         O 4  -- La 9              0.18        2.36356
         O 5  -- La 8              0.18        2.36358
         O 6  -- La 14             0.17        2.36466
         O 3  -- La 14             0.17        2.36470
         O 38 -- La 10             0.12        2.65881
         O 42 -- La 16             0.12        2.65963
         O 50 -- La 5              0.14        2.66064
         O 40 -- La 9              0.14        2.66070
         O 9  -- La 11             0.12        2.66445
         O 30 -- La 11             0.12        2.66488
         O 54 -- La 3              0.14        2.66677
         O 46 -- La 1              0.14        2.66729
         O 20 -- La 12             0.14        2.66736
         O 25 -- La 8              0.14        2.66782
         O 31 -- La 5              0.24        2.66783
         O 10 -- La 13             0.17        2.66799
         O 45 -- La 5              0.18        2.66813
         O 56 -- La 2              0.18        2.66829
         O 12 -- La 9              0.24        2.66870
         O 29 -- La 6              0.17        2.66878
         O 53 -- La 9              0.18        2.66879
         O 48 -- La 6              0.17        2.66961
         O 38 -- La 4              0.13        2.66972
         O 42 -- La 4              0.12        2.66992
         O 36 -- La 2              0.17        2.67001
         O 22 -- La 9              0.24        2.67009
         O 16 -- La 5              0.24        2.67012
         O 23 -- La 11             0.16        2.67021
         O 11 -- La 8              0.25        2.67034
         O 47 -- La 11             0.23        2.67051
         O 33 -- La 13             0.17        2.67068
         O 11 -- La 14             0.25        2.67099
         O 32 -- La 12             0.25        2.67115
         O 34 -- La 11             0.23        2.67121
         O 32 -- La 14             0.25        2.67135
         O 46 -- La 15             0.14        2.67165
         O 21 -- La 6              0.24        2.67167
         O 13 -- La 11             0.16        2.67183
         O 15 -- La 13             0.24        2.67194
         O 19 -- La 9              0.24        2.67223
         O 15 -- La 12             0.24        2.67225
         O 54 -- La 7              0.14        2.67231
         O 21 -- La 8              0.24        2.67232
         O 37 -- La 2              0.24        2.67236
         O 52 -- La 2              0.13        2.67246
         O 14 -- La 6              0.13        2.67263
         O 24 -- La 13             0.13        2.67267
         O 28 -- La 16             0.17        2.67277
         O 31 -- La 13             0.25        2.67289
         O 44 -- La 2              0.13        2.67296
         O 37 -- La 8              0.25        2.67302
         O 26 -- La 5              0.24        2.67307
         O 41 -- La 2              0.24        2.67314
         O 17 -- La 10             0.16        2.67341
         O 12 -- La 6              0.25        2.67353
         O 52 -- La 6              0.13        2.67353
         O 24 -- La 10             0.13        2.67358
         O 14 -- La 16             0.12        2.67378
         O 41 -- La 12             0.25        2.67378
         O 39 -- La 8              0.18        2.67384
         O 35 -- La 16             0.17        2.67403
         O 49 -- La 12             0.18        2.67407
         O 55 -- La 10             0.17        2.67409
         O 44 -- La 13             0.13        2.67415
         O 25 -- La 15             0.14        2.67509
         O 16 -- La 14             0.24        2.67568
         O 22 -- La 14             0.24        2.67568
         O 20 -- La 7              0.13        2.67580
         O 51 -- La 14             0.19        2.67745
         O 43 -- La 14             0.19        2.67768
         O 35 -- La 3              0.19        2.67856
         O 17 -- La 15             0.17        2.67857
         O 55 -- La 1              0.19        2.67869
         O 49 -- La 1              0.18        2.67890
         O 39 -- La 3              0.18        2.67917
         O 9  -- La 10             0.12        2.67920
         O 47 -- La 1              0.24        2.67925
         O 28 -- La 7              0.17        2.67930
         O 19 -- La 16             0.23        2.67946
         O 30 -- La 16             0.12        2.67974
         O 34 -- La 3              0.24        2.67996
         O 26 -- La 10             0.23        2.68011
         O 50 -- La 4              0.13        2.68047
         O 40 -- La 4              0.13        2.68056
         O 27 -- La 9              0.17        2.68107
         O 29 -- La 15             0.17        2.68161
         O 18 -- La 5              0.17        2.68172
         O 45 -- La 3              0.18        2.68203
         O 10 -- La 7              0.17        2.68224
         O 53 -- La 1              0.18        2.68246
         O 36 -- La 15             0.17        2.68263
         O 27 -- La 12             0.19        2.68283
         O 51 -- La 1              0.19        2.68292
         O 56 -- La 7              0.17        2.68298
         O 18 -- La 8              0.19        2.68322
         O 43 -- La 3              0.19        2.68354
         O 48 -- La 4              0.17        2.68493
         O 33 -- La 4              0.17        2.68529
         O 13 -- La 15             0.18        2.68672
         O 23 -- La 7              0.18        2.68707
         O 13 -- O 34             -0.06        2.79380
         O 15 -- O 33             -0.06        2.79450
         O 36 -- O 41             -0.06        2.79484
         O 21 -- O 48             -0.06        2.79494
         O 23 -- O 47             -0.06        2.79500
         O 37 -- O 56             -0.06        2.79601
         O 17 -- O 26             -0.06        2.79675
         O 12 -- O 29             -0.06        2.79693
         O 31 -- O 45             -0.06        2.79732
         O 19 -- O 28             -0.06        2.79756
         O 17 -- O 36             -0.06        2.79762
         O 10 -- O 31             -0.06        2.79768
         O 12 -- O 53             -0.06        2.79775
         O 16 -- O 26             -0.05        2.79789
         O 19 -- O 22             -0.05        2.79826
         O 33 -- O 48             -0.06        2.79893
         O 28 -- O 56             -0.06        2.79927
         O 19 -- O 27             -0.06        2.79929
         O 34 -- O 47             -0.05        2.79941
         O 13 -- O 29             -0.06        2.79950
         O 18 -- O 26             -0.06        2.79964
         O 53 -- O 55             -0.06        2.79987
         O 35 -- O 45             -0.06        2.79989
         O 37 -- O 39             -0.06        2.80057
         O 41 -- O 49             -0.06        2.80108
         O 10 -- O 23             -0.06        2.80110
         O 47 -- O 49             -0.06        2.80159
         O 34 -- O 39             -0.06        2.80190
         O 18 -- O 21             -0.06        2.80249
         O 15 -- O 27             -0.06        2.80256
         O 26 -- O 55             -0.06        2.80623
         O 19 -- O 35             -0.06        2.80665
         O 11 -- O 21             -0.05        2.80669
         O 15 -- O 32             -0.05        2.80677
         O 34 -- O 43             -0.06        2.80740
         O 47 -- O 51             -0.06        2.80779
         O 12 -- O 22             -0.05        2.80781
         O 37 -- O 41             -0.05        2.80790
         O 16 -- O 31             -0.05        2.80818
         O 32 -- O 41             -0.05        2.80819
         O 11 -- O 37             -0.05        2.80845
         O 9  -- O 30             -0.03        2.80899
         O 11 -- O 32             -0.05        2.80972
         O 22 -- O 43             -0.05        2.81058
         O 16 -- O 51             -0.05        2.81061
         O 12 -- O 21             -0.05        2.81104
         O 11 -- O 22             -0.05        2.81116
         O 30 -- O 42             -0.03        2.81117
         O 16 -- O 32             -0.05        2.81125
         O 15 -- O 31             -0.05        2.81140
         O 9  -- O 38             -0.03        2.81161
         O 38 -- O 42             -0.03        2.81179
         O 35 -- O 42             -0.03        2.81449
         O 38 -- O 55             -0.03        2.81488
         O 9  -- O 23             -0.03        2.81557
         O 40 -- O 53             -0.03        2.81567
         O 13 -- O 30             -0.03        2.81612
         O 10 -- O 24             -0.03        2.81669
         O 45 -- O 50             -0.03        2.81673
         O 14 -- O 29             -0.03        2.81733
         O 14 -- O 28             -0.03        2.81776
         O 33 -- O 44             -0.03        2.81847
         O 14 -- O 52             -0.03        2.81851
         O 44 -- O 52             -0.03        2.81861
         O 17 -- O 24             -0.03        2.81880
         O 48 -- O 52             -0.03        2.81892
         O 52 -- O 56             -0.03        2.81937
         O 24 -- O 44             -0.03        2.81956
         O 36 -- O 44             -0.03        2.81967
         O 42 -- O 50             -0.03        2.82045
         O 9  -- O 24             -0.03        2.82061
         O 14 -- O 30             -0.03        2.82161
         O 38 -- O 40             -0.03        2.82212
         O 18 -- O 50             -0.03        2.82498
         O 10 -- O 54             -0.03        2.82529
         O 39 -- O 54             -0.03        2.82596
         O 27 -- O 40             -0.03        2.82599
         O 29 -- O 46             -0.03        2.82604
         O 46 -- O 49             -0.03        2.82639
         O 46 -- O 53             -0.03        2.82652
         O 20 -- O 49             -0.03        2.82710
         O 45 -- O 54             -0.03        2.82712
         O 25 -- O 39             -0.03        2.82760
         O 20 -- O 28             -0.03        2.82778
         O 36 -- O 46             -0.03        2.82793
         O 17 -- O 25             -0.03        2.82862
         O 54 -- O 56             -0.03        2.82881
         O 18 -- O 25             -0.03        2.82905
         O 20 -- O 27             -0.03        2.82965
         O 13 -- O 25             -0.03        2.83053
         O 33 -- O 40             -0.03        2.83068
         O 20 -- O 23             -0.03        2.83136
         O 48 -- O 50             -0.03        2.83227
         O 51 -- O 55             -0.03        2.83692
         O 35 -- O 43             -0.03        2.83707
         O 43 -- O 51             -0.03        2.83814
============================================================
 

Writing analysis data to 082.castep_bin

Writing model to 082.check
 
 A BibTeX formatted list of references used in this run has been written to 
 082.bib
 
Initialisation time =     53.49 s
Calculation time    =  33987.33 s
Finalisation time   =     51.85 s
Total time          =  34092.67 s
Peak Memory Use     = 2840448 kB
  
Overall parallel efficiency rating: Good (78%)                                  
  
Data was distributed by:-
G-vector (4-way); efficiency rating: Very good (80%)                            
k-point (14-way); efficiency rating: Excellent (98%)                            
