 +-------------------------------------------------+
 |                                                 |
 |      CCC   AA    SSS  TTTTT  EEEEE  PPPP        |
 |     C     A  A  S       T    E      P   P       |
 |     C     AAAA   SS     T    EEE    PPPP        |
 |     C     A  A     S    T    E      P           |
 |      CCC  A  A  SSS     T    EEEEE  P           |
 |                                                 |
 +-------------------------------------------------+
 |                                                 |
 | Welcome to Academic Release CASTEP version 16.11|          
 | Ab Initio Total Energy Program                  |
 |                                                 |
 | Authors:                                        |
 | M. Segall, M. Probert, C. Pickard, P. Hasnip,   |
 | S. Clark, K. Refson, J. R. Yates, M. Payne      |
 |                                                 |
 | Contributors:                                   |
 | P. Lindan, P. Haynes, J. White, V. Milman,      |
 | N. Govind, M. Gibson, P. Tulip, V. Cocula,      |
 | B. Montanari, D. Quigley, M. Glover,            |
 | L. Bernasconi, A. Perlov, M. Plummer,           |
 | E. McNellis, J. Meyer, J. Gale, D. Jochym       |
 | J. Aarons, B. Walker, R. Gillen, D. Jones       |
 | T. Green, I. J. Bush, C. J. Armstrong,          |
 | E. J. Higgins, E. L. Brown, M. S. McFly         |
 |                                                 |
 | Copyright (c) 2000 - 2015                       |
 |                                                 |
 |     Distributed under the terms of an           |
 |     Agreement between the United Kingdom        |
 |     Car-Parrinello (UKCP) Consortium,           |
 |     Daresbury Laboratory and Accelrys, Inc.     |
 |                                                 |
 | Please cite                                     |
 |                                                 |
 |     "First principles methods using CASTEP"     |
 |                                                 |
 |         Zeitschrift fuer Kristallographie       |
 |           220(5-6) pp. 567-570 (2005)           |
 |                                                 |
 | S. J. Clark, M. D. Segall, C. J. Pickard,       |
 | P. J. Hasnip, M. J. Probert, K. Refson,         |
 | M. C. Payne                                     |
 |                                                 |
 |       in all publications arising from          |
 |              your use of CASTEP                 |
 |                                                 |
 +-------------------------------------------------+
 
 
 Compiled for linux_x86_64_ifort16 on Sat, 23 Jul 2016 23:44:54 +0100
 from code version 
 203e84763863+ Castep161_branch Fri, 04 Mar 2016 19:21:07 +0000
 Compiler: Intel Fortran 16.0.3.210; Optimisation: fast
 MATHLIBS: Intel MKL(11.3.3) (LAPACK version 3.6.0)
 FFT Lib : mkl
 Fundamental constants values: CODATA 2010
 
 Run started: Sat, 10 Mar 2018 10:35:00 +0000
 +-------------------------------------------------+
 |                                                 |
 |           N   N    M   M    RRRR                |
 |           NN  N    MM MM    R   R               |
 |           N N N    M M M    RRRR                |
 |           N  NN    M   M    R  R                |
 |           N   N    M   M    R   R               |
 |                                                 |
 +-------------------------------------------------+
 |                                                 |
 | Welcome to Materials Studio CASTEP-NMR          |
 |                                                 |
 | Authors:                                        |
 | J.R. Yates, C.J. Pickard, F. Mauri              |
 |                                                 |
 | Contributors:                                   |
 | T.F.G. Green, S.A. Joyce                        |
 |                                                 |
 | Copyright (c) 2004 - 2015                       |
 |                                                 |
 | Please cite the appropriate publications in all |
 | work arising from your use of CASTEP NMR.       |
 |                                                 |
 | For NMR Shielding Tensors cite:                 |
 |    "All-electron magnetic response with         |
 |    pseudopotentials: NMR chemical shifts",      |
 |    C. J. Pickard, F. Mauri;                     |
 |    Physical Review B63 245101 (2001), and       |
 |                                                 |
 |    "Calculation of NMR Chemical Shifts          |
 |    for extended systems using                   |
 |    Ultrasoft Pseudopotentials",                 |
 |    J. R. Yates, C. J. Pickard and F. Mauri      |
 |    Physical Review B76 024401 (2007)            |
 |                                                 |
 | For Electric Field Gradients cite:              |
 |   "Accurate First Principles Prediction of 17O  |
 |    NMR Parameters in SiO2: Assignment of the    |
 |    Zeolite Ferrierite Spectrum"                 |
 |    M. Profeta, F. Mauri and C. J. Pickard       |
 |    J. Amer. Chem. Soc. 125 541 (2003)           |
 |                                                 |
 | For Spin-Spin (J) Couplings cite:               |
 |   "A first principles theory of NMR J-coupling  |
 |   in solid-state systems"                       |
 |   S.A. Joyce, J.R. Yates, C.J. Pickard, F. Mauri|
 |   J. Chem. Phys. 127 204107 (2007)              |
 |                                                 |
 |   "Relativistic NMR J-coupling with ultrasoft   |
 |   pseudopotentials and the zeroth-order regular |
 |   approximation"                                |
 |   T.F.G. Green and J.R. Yates                   |
 |   J. Chem. Phys. 140 234106 (2014)              |
 |                                                 |
 +-------------------------------------------------+
 
 
 Atomic calculation performed for O: 1s2 2s2 2p4
 
 Converged in 44 iterations to an ae energy of -2040.855 eV
 
 
 Atomic calculation performed for O: 1s2 2s2 2p4
 
 Exceeded max iterations: converged to 0.000000062 eV
 
   ============================================================                
   | Pseudopotential Report - Date of generation 10-03-2018   |                
   ------------------------------------------------------------                
   | Element: O Ionic charge:  6.00 Level of theory: PBE      |                
   | Atomic Solver: ZORA (scalar)                             |                
   |                                                          |                
   |               Reference Electronic Structure             |                
   |         Orbital         Occupation         Energy        |                
   |            2s              2.000           -0.881        |                
   |            2p              4.000           -0.332        |                
   |                                                          |                
   |                 Pseudopotential Definition               |                
   |        Beta     l      e      Rc     scheme   norm       |                
   |          1      0   -0.881   1.100     qc      0         |                
   |          2      0    0.250   1.100     qc      0         |                
   |          3      1   -0.332   1.100     qc      0         |                
   |          4      1    0.250   1.100     qc      0         |                
   |         loc     2    0.000   1.100     pn      0         |                
   |                                                          |                
   | Augmentation charge Rinner = 0.769                       |                
   | Partial core correction Rc = 0.769                       |                
   ------------------------------------------------------------                
   | "2|1.1|15|18|20|20:21(qc=7)"                             |                
   ------------------------------------------------------------                
   |      Author: Chris J. Pickard, Cambridge University      |                
   ============================================================                
 
 Atomic calculation performed for Zr: 1s2 2s2 2p6 3s2 3p6 3d10 4s2 4p6 4d2 5s2
 
 Converged in 53 iterations to an ae energy of -97719.888 eV
 
 
 Atomic calculation performed for Zr: 1s2 2s2 2p6 3s2 3p6 3d10 4s2 4p6 4d2 5s2
 
 Exceeded max iterations: converged to 0.000000970 eV
 
 Warning: ion_atom_descreen_psp: negative charge density encountered
   ============================================================                
   | Pseudopotential Report - Date of generation 10-03-2018   |                
   ------------------------------------------------------------                
   | Element: Zr Ionic charge: 12.00 Level of theory: PBE     |                
   | Atomic Solver: ZORA (scalar)                             |                
   |                                                          |                
   |               Reference Electronic Structure             |                
   |         Orbital         Occupation         Energy        |                
   |            4s              2.000           -2.003        |                
   |            4p              6.000           -1.193        |                
   |            5s              2.000           -0.163        |                
   |            4d              2.000           -0.132        |                
   |                                                          |                
   |                 Pseudopotential Definition               |                
   |        Beta     l      e      Rc     scheme   norm       |                
   |          1      0   -2.003   2.105     qc      0         |                
   |          2      0   -0.163   2.105     qc      0         |                
   |          3      0    0.250   2.105     qc      0         |                
   |          4      1   -1.193   2.105     qc      0         |                
   |          5      1    0.250   2.105     qc      0         |                
   |          6      2   -0.132   2.105     qc      0         |                
   |          7      2    0.250   2.105     qc      0         |                
   |         loc     3    0.000   2.105     pn      0         |                
   |                                                          |                
   | Augmentation charge Rinner = 1.471                       |                
   | Partial core correction Rc = 1.471                       |                
   ------------------------------------------------------------                
   | "3|2.1|7|8|9|40U:50:41:42"                               |                
   ------------------------------------------------------------                
   |      Author: Chris J. Pickard, Cambridge University      |                
   ============================================================                
 
 Atomic calculation performed for Sn:
 1s2 2s2 2p6 3s2 3p6 3d10 4s2 4p6 4d10 5s2 5p2
 
 Converged in 58 iterations to an ae energy of -167539.320 eV
 
 
 Atomic calculation performed for Sn:
 1s2 2s2 2p6 3s2 3p6 3d10 4s2 4p6 4d10 5s2 5p2
 
 Exceeded max iterations: converged to 0.000001154 eV
 
   ============================================================                
   | Pseudopotential Report - Date of generation 10-03-2018   |                
   ------------------------------------------------------------                
   | Element: Sn Ionic charge: 14.00 Level of theory: PBE     |                
   | Atomic Solver: ZORA (scalar)                             |                
   |                                                          |                
   |               Reference Electronic Structure             |                
   |         Orbital         Occupation         Energy        |                
   |            4d             10.000           -0.950        |                
   |            5s              2.000           -0.388        |                
   |            5p              2.000           -0.136        |                
   |                                                          |                
   |                 Pseudopotential Definition               |                
   |        Beta     l      e      Rc     scheme   norm       |                
   |          1      0   -0.388   2.199     qc      0         |                
   |          2      0    0.250   2.199     qc      0         |                
   |          3      1   -0.136   2.199     qc      0         |                
   |          4      1    0.250   2.199     qc      0         |                
   |          5      2   -0.950   2.199     qc      0         |                
   |          6      2    0.250   2.199     qc      0         |                
   |         loc     3    0.000   2.199     pn      0         |                
   |                                                          |                
   | Augmentation charge Rinner = 1.537                       |                
   | Partial core correction Rc = 1.537                       |                
   ------------------------------------------------------------                
   | "3|2.2|7|8|9|50:51:42"                                   |                
   ------------------------------------------------------------                
   |      Author: Chris J. Pickard, Cambridge University      |                
   ============================================================                
 
 Atomic calculation performed for La:
 1s2 2s2 2p6 3s2 3p6 3d10 4s2 4p6 4d10 5s2 5p6 5d1 6s2
 
 Converged in 56 iterations to an ae energy of -230121.495 eV
 
 
 Atomic calculation performed for La:
 1s2 2s2 2p6 3s2 3p6 3d10 4s2 4p6 4d10 5s2 5p6 5d1 6s2
 
 Exceeded max iterations: converged to 0.000000907 eV
 
 Warning: ion_atom_descreen_psp: negative charge density encountered
   ============================================================                
   | Pseudopotential Report - Date of generation 10-03-2018   |                
   ------------------------------------------------------------                
   | Element: La Ionic charge: 11.00 Level of theory: PBE     |                
   | Atomic Solver: ZORA (scalar)                             |                
   |                                                          |                
   |               Reference Electronic Structure             |                
   |         Orbital         Occupation         Energy        |                
   |            5s              2.000           -1.430        |                
   |            5p              6.000           -0.823        |                
   |            6s              2.000           -0.135        |                
   |            5d              1.000           -0.114        |                
   |                                                          |                
   |                 Pseudopotential Definition               |                
   |        Beta     l      e      Rc     scheme   norm       |                
   |          1      0   -1.430   2.298     qc      0         |                
   |          2      0   -0.135   2.298     qc      0         |                
   |          3      0    0.250   2.298     qc      0         |                
   |          4      1   -0.823   2.298     qc      0         |                
   |          5      1    0.250   2.298     qc      0         |                
   |          6      2   -0.114   2.298     qc      0         |                
   |          7      2    0.250   2.298     qc      0         |                
   |         loc     2    0.000   2.298     pn      0         |                
   |                                                          |                
   | Augmentation charge Rinner = 1.606                       |                
   | Partial core correction Rc = 1.606                       |                
   ------------------------------------------------------------                
   | "2|2.3|5|6|7|50U:60:51:52(qc=4.5)"                       |                
   ------------------------------------------------------------                
   |      Author: Chris J. Pickard, Cambridge University      |                
   ============================================================                
 
 Pseudo atomic calculation performed for O 2s2 2p4
 
 Converged in 39 iterations to a total energy of -432.6554 eV
 
 
 Pseudo atomic calculation performed for Zr 4s2 4p6 4d2 5s2
 
 Converged in 38 iterations to a total energy of -1285.4931 eV
 
 
 Pseudo atomic calculation performed for Sn 4d10 5s2 5p2
 
 Converged in 48 iterations to a total energy of -2044.5414 eV
 
 
 Pseudo atomic calculation performed for La 5s2 5p6 5d1 6s2
 
 Converged in 34 iterations to a total energy of -968.0372 eV
 
 Calculation parallelised over 56 processes.
 Data is distributed by G-vector(4-way) and k-point(14-way)

 ************************************ Title ************************************
 nmr testing

 ***************************** General Parameters ******************************
  
 output verbosity                               : normal  (1)
 write checkpoint data to                       : 015.check
 type of calculation                            : Magnetic Resonance
 stress calculation                             : on
 density difference calculation                 : off
 electron localisation func (ELF) calculation   : off
 Hirshfeld analysis                             : off
 unlimited duration calculation
 timing information                             : on
 memory usage estimate                          : on
 write final potential to formatted file        : off
 write final density to formatted file          : off
 write structure in CIF formatted file          : on
 write structure in CELL formatted file         : on
 write BibTeX reference list                    : on
 write OTFG pseudopotential files               : on
 checkpoint writing                             : both castep_bin and check files
  
 output         length unit                     : A
 output           mass unit                     : amu
 output           time unit                     : ps
 output         charge unit                     : e
 output           spin unit                     : hbar/2
 output         energy unit                     : eV
 output          force unit                     : eV/A
 output       velocity unit                     : A/ps
 output       pressure unit                     : GPa
 output     inv_length unit                     : 1/A
 output      frequency unit                     : cm-1
 output force constant unit                     : eV/A**2
 output         volume unit                     : A**3
 output   IR intensity unit                     : (D/A)**2/amu
 output         dipole unit                     : D
 output         efield unit                     : eV/A/e
 output        entropy unit                     : J/mol/K
  
 wavefunctions paging                           : none
 random number generator seed                   : randomised (103502400)
 data distribution                              : optimal for this architecture
 optimization strategy                          : maximize speed(+++)

 *********************** Exchange-Correlation Parameters ***********************
  
 using functional                               : Perdew Burke Ernzerhof
 relativistic treatment                         : ZORA
 DFT+D: Semi-empirical dispersion correction    : off

 ************************* Pseudopotential Parameters **************************
  
 pseudopotential representation                 : reciprocal space
 <beta|phi> representation                      : reciprocal space
 spin-orbit coupling                            : off

 **************************** Basis Set Parameters *****************************
  
 plane wave basis set cut-off                   :   816.3416   eV
 size of standard grid                          :     1.7500
 size of   fine   gmax                          :    25.6161   1/A
 finite basis set correction                    : automatic
 number of sample energies                      :          3
           sample  spacing                      :     5.0000   eV

 **************************** Electronic Parameters ****************************
  
 number of  electrons                           :  716.0    
 net charge of system                           :  0.000    
 treating system as non-spin-polarized
 number of bands                                :        430

 ********************* Electronic Minimization Parameters **********************
  
 Method: Treating system as metallic with density mixing treatment of electrons,
         and number of  SD  steps               :          1
         and number of  CG  steps               :          4
  
 total energy / atom convergence tol.           : 0.1000E-08   eV
 eigen-energy convergence tolerance             : 0.2458E-09   eV
 max force / atom convergence tol.              : ignored
 convergence tolerance window                   :          3   cycles
 max. number of SCF cycles                      :         50
 number of fixed-spin iterations                :         10
 smearing scheme                                : Gaussian
 smearing width                                 : 0.2000       eV
 Fermi energy convergence tolerance             : 0.2721E-13   eV
 periodic dipole correction                     : NONE

 ************************** Density Mixing Parameters **************************
  
 density-mixing scheme                          : Broyden
 max. length of mixing history                  :         20
 charge density mixing amplitude                : 0.8000    
 cut-off energy for mixing                      :  816.3       eV

 *********************** Population Analysis Parameters ************************
  
 Population analysis with cutoff                :  3.000       A

 ************************ Magnetic Resonance Parameters ************************
  
 Magnetic Resonance Property                    : Chemical Shielding + EFG
 Position Operator Method                       : crystal
 max. number of MagRes CG steps                 :        250
 convergence tolerance window                   :          2   cycles
 energy convergence tolerance                   : 0.1000E-11   eV
 band convergence tolerance                     : 0.1000E-08   eV

 *******************************************************************************
  
 
                           -------------------------------
                                      Unit Cell
                           -------------------------------
        Real Lattice(A)                      Reciprocal Lattice(1/A)
  10.9054511  -0.0001358   0.0006462        0.5761509   0.0000071  -0.0000341
  -0.0001348  10.9090414  -0.0073967        0.0000071   0.5759615   0.0003907
   0.0006463  -0.0073961  10.9044689       -0.0000341   0.0003907   0.5762030
 
                       Lattice parameters(A)       Cell Angles
                    a =   10.905451          alpha =   90.077710
                    b =   10.909044          beta  =   89.993209
                    c =   10.904471          gamma =   90.001424
 
                       Current cell volume = 1297.282439       A**3
 
                           -------------------------------
                                     Cell Contents
                           -------------------------------
                         Total number of ions in cell =   88
                      Total number of species in cell =    4
                        Max number of any one species =   56
 
            xxxxxxxxxxxxxxxxxxxxxxxxxxxxxxxxxxxxxxxxxxxxxxxxxxxxxxxxxxxx
            x  Element    Atom        Fractional coordinates of atoms  x
            x            Number           u          v          w      x
            x----------------------------------------------------------x
            x  O            1         0.125139   0.124771   0.125004   x 
            x  O            2         0.625045   0.125353   0.625119   x 
            x  O            3         0.125112   0.624911   0.625350   x 
            x  O            4         0.624772   0.624863   0.125001   x 
            x  O            5         0.874866   0.374631   0.374971   x 
            x  O            6         0.874842   0.875075   0.875311   x 
            x  O            7         0.374929   0.374861   0.875058   x 
            x  O            8         0.375203   0.875065   0.375056   x 
            x  O            9         0.420115   0.125847   0.124286   x 
            x  O           10         0.330414   0.124682   0.624515   x 
            x  O           11         0.829361   0.625886   0.624311   x 
            x  O           12         0.919435   0.625129   0.125604   x 
            x  O           13         0.124969   0.419534   0.125081   x 
            x  O           14         0.624824   0.329737   0.124792   x 
            x  O           15         0.625787   0.830785   0.624726   x 
            x  O           16         0.124491   0.920966   0.623572   x 
            x  O           17         0.123989   0.124075   0.420954   x 
            x  O           18         0.124658   0.625482   0.330746   x 
            x  O           19         0.624954   0.625776   0.829299   x 
            x  O           20         0.625445   0.124690   0.920069   x 
            x  O           21         0.875118   0.669208   0.374682   x 
            x  O           22         0.875416   0.578878   0.876197   x 
            x  O           23         0.374925   0.080366   0.874678   x 
            x  O           24         0.374352   0.170027   0.374587   x 
            x  O           25         0.170765   0.375555   0.373808   x 
            x  O           26         0.080483   0.874388   0.374952   x 
            x  O           27         0.578872   0.874716   0.873371   x 
            x  O           28         0.669503   0.375478   0.875044   x 
            x  O           29         0.875988   0.376162   0.079067   x 
            x  O           30         0.373582   0.375853   0.170930   x 
            x  O           31         0.375924   0.874414   0.670958   x 
            x  O           32         0.874507   0.874946   0.580557   x 
            x  O           33         0.670185   0.874604   0.375867   x 
            x  O           34         0.079215   0.375547   0.876386   x 
            x  O           35         0.375778   0.670779   0.874358   x 
            x  O           36         0.875426   0.079667   0.375561   x 
            x  O           37         0.874803   0.374655   0.669814   x 
            x  O           38         0.374640   0.875156   0.080202   x 
            x  O           39         0.125136   0.329929   0.625224   x 
            x  O           40         0.625594   0.920148   0.124425   x 
            x  O           41         0.920851   0.123364   0.624589   x 
            x  O           42         0.329854   0.624429   0.125082   x 
            x  O           43         0.125010   0.624288   0.920404   x 
            x  O           44         0.624894   0.124740   0.330052   x 
            x  O           45         0.420954   0.625810   0.625114   x 
            x  O           46         0.829953   0.125553   0.125599   x 
            x  O           47         0.125585   0.125645   0.830357   x 
            x  O           48         0.625928   0.625594   0.420629   x 
            x  O           49         0.874684   0.169979   0.874431   x 
            x  O           50         0.373666   0.578935   0.374713   x 
            x  O           51         0.169782   0.874732   0.874672   x 
            x  O           52         0.580170   0.375406   0.374808   x 
            x  O           53         0.875454   0.873882   0.170358   x 
            x  O           54         0.374816   0.375300   0.580530   x 
            x  O           55         0.124596   0.829901   0.126121   x 
            x  O           56         0.624945   0.419112   0.624972   x 
            x  Zr           1         0.500171   0.499908   0.500216   x 
            x  Zr           2         0.249792   0.749648   0.000170   x 
            x  Zr           3         0.750836   0.999515   0.251055   x 
            x  Zr           4         0.000088   0.249646   0.750273   x 
            x  Zr           5         0.750601   0.250953   0.999602   x 
            x  Zr           6         0.250339   1.000218   0.749343   x 
            x  Zr           7         0.499821   1.000067   0.999369   x 
            x  Zr           8         0.249706   0.249899   0.499822   x 
            x  Zr           9         0.749627   0.499978   0.749573   x 
            x  Zr          10         0.499369   0.250718   0.250012   x 
            x  Sn           1         0.999940   0.749923   0.250119   x 
            x  Sn           2         0.750561   0.750576   0.499478   x 
            x  Sn           3         0.248646   0.501129   0.248930   x 
            x  Sn           4         0.001118   0.501062   0.001302   x 
            x  Sn           5         0.501020   0.749686   0.749087   x 
            x  Sn           6         0.998826   0.998626   0.498953   x 
            x  La           1         0.000165   0.000057   0.999839   x 
            x  La           2         0.749647   0.250265   0.500090   x 
            x  La           3         0.250054   0.499595   0.749837   x 
            x  La           4         0.499909   0.750354   0.249568   x 
            x  La           5         0.250376   0.749783   0.500183   x 
            x  La           6         0.749324   0.499637   0.250347   x 
            x  La           7         0.499924   0.250197   0.749813   x 
            x  La           8         0.999843   0.499328   0.500740   x 
            x  La           9         0.749828   0.750181   0.000288   x 
            x  La          10         0.250467   0.000010   0.249754   x 
            x  La          11         0.250130   0.249339   0.999645   x 
            x  La          12         0.750057   0.000600   0.750446   x 
            x  La          13         0.499979   0.000635   0.499762   x 
            x  La          14         0.000348   0.750005   0.750650   x 
            x  La          15         0.999636   0.249363   0.249996   x 
            x  La          16         0.500146   0.499836   0.999813   x 
            xxxxxxxxxxxxxxxxxxxxxxxxxxxxxxxxxxxxxxxxxxxxxxxxxxxxxxxxxxxx
 
 
                         No user defined ionic velocities
 
                           -------------------------------
                                   Details of Species
                           -------------------------------
 
                               Mass of species in AMU
                                    O   15.9994000
                                    Zr   91.2240000
                                    Sn  118.7100000
                                    La  138.9055000
 
                          Electric Quadrupole Moment (Barn)
                                    O   -0.0255800 Isotope 17
                                    Zr   -0.1760000 Isotope 91
                                    Sn    1.0000000 No Isotope Defined
                                    La    0.2000000 Isotope139
 
                          Files used for pseudopotentials:
                                    O 2|1.1|15|18|20|20:21(qc=7)
                                    Zr 3|2.1|7|8|9|40U:50:41:42
                                    Sn 3|2.2|7|8|9|50:51:42
                                    La 2|2.3|5|6|7|50U:60:51:52(qc=4.5)
 
                           -------------------------------
                              k-Points For BZ Sampling
                           -------------------------------
                       MP grid size for SCF calculation is  3  3  3
                            with an offset of   0.000  0.000  0.000
                       Number of kpoints used =            14
 
                           -------------------------------
                               Symmetry and Constraints
                           -------------------------------
 
                      Maximum deviation from symmetry =  0.00000         ANG
 
         There are no symmetry operations specified or generated for this cell
                      Number of ionic constraints     =           3
                      Point group of crystal =     1: C1, 1, 1
                      Space group of crystal =     1: P1, P 1
 
 
                         Centre of mass is constrained
             Set iprint > 1 for details of linear ionic constraints
 
                         Number of cell constraints= 0
                         Cell constraints are:  1 2 3 4 5 6
 
                         External pressure/stress (GPa)
                          0.00000   0.00000   0.00000
                                    0.00000   0.00000
                                              0.00000
  
+---------------- MEMORY AND SCRATCH DISK ESTIMATES PER PROCESS --------------+
|                                                     Memory          Disk    |
| Baseline code, static data and system overhead      322.0 MB         0.0 MB |
| BLAS internal memory storage                          0.0 MB         0.0 MB |
| Model and support data                             1319.6 MB         0.0 MB |
| Electronic energy minimisation requirements         380.6 MB         0.0 MB |
| Force calculation requirements                       24.1 MB         0.0 MB |
| Stress calculation requirements                      28.3 MB         0.0 MB |
|                                               ----------------------------- |
| Approx. total storage required per process         2022.2 MB         0.0 MB |
|                                                                             |
| Requirements will fluctuate during execution and may exceed these estimates |
+-----------------------------------------------------------------------------+
Calculating finite basis set correction with  3 cut-off energies.
Calculating total energy with cut-off of  806.342eV.
------------------------------------------------------------------------ <-- SCF
SCF loop      Energy           Fermi           Energy gain       Timer   <-- SCF
                               energy          per atom          (sec)   <-- SCF
------------------------------------------------------------------------ <-- SCF
Initial  -5.43672096E+004  0.00000000E+000                        75.37  <-- SCF
      1  -6.30225466E+004  7.57350096E+000   9.83561025E+001     214.93  <-- SCF
      2  -6.55947776E+004  7.08926339E+000   2.92298978E+001     311.07  <-- SCF
      3  -6.56722978E+004  6.76808757E+000   8.80911465E-001     415.98  <-- SCF
      4  -6.56684169E+004  7.74207852E+000  -4.41011601E-002     547.78  <-- SCF
      5  -6.55601543E+004  7.29595289E+000  -1.23025694E+000     677.86  <-- SCF
      6  -6.55617346E+004  7.18186348E+000   1.79575054E-002     836.36  <-- SCF
      7  -6.55614828E+004  7.26606591E+000  -2.86129083E-003     973.07  <-- SCF
      8  -6.55615403E+004  7.26690877E+000   6.54074415E-004    1145.18  <-- SCF
      9  -6.55615596E+004  7.26489583E+000   2.19060841E-004    1295.12  <-- SCF
     10  -6.55615610E+004  7.26103209E+000   1.56080004E-005    1437.20  <-- SCF
     11  -6.55615601E+004  7.26261168E+000  -1.02044917E-005    1581.73  <-- SCF
     12  -6.55615603E+004  7.26224659E+000   2.94005043E-006    1737.56  <-- SCF
     13  -6.55615604E+004  7.26151757E+000   2.70686381E-007    1873.39  <-- SCF
     14  -6.55615603E+004  7.26118696E+000  -3.81068981E-007    2010.39  <-- SCF
     15  -6.55615603E+004  7.26069214E+000  -8.35117959E-008    2155.74  <-- SCF
     16  -6.55615603E+004  7.26045203E+000   9.49587314E-010    2283.17  <-- SCF
     17  -6.55615603E+004  7.26038015E+000  -3.77556928E-010    2403.28  <-- SCF
------------------------------------------------------------------------ <-- SCF
 
Final energy, E             =  -65561.56031154     eV
Final free energy (E-TS)    =  -65561.56031154     eV
(energies not corrected for finite basis set)
 
NB est. 0K energy (E-0.5TS)      =  -65561.56031154     eV
 
Calculating total energy with cut-off of  811.342eV.
------------------------------------------------------------------------ <-- SCF
SCF loop      Energy           Fermi           Energy gain       Timer   <-- SCF
                               energy          per atom          (sec)   <-- SCF
------------------------------------------------------------------------ <-- SCF
Initial  -6.55615603E+004  0.00000000E+000                      2438.88  <-- SCF
      1  -6.55615628E+004  7.26007613E+000   2.80945482E-005    2551.44  <-- SCF
      2  -6.55615628E+004  7.26007612E+000   1.15840372E-009    2664.65  <-- SCF
      3  -6.55615628E+004  7.26018965E+000   1.93005414E-008    2787.14  <-- SCF
      4  -6.55615628E+004  7.26018762E+000  -1.40799908E-008    2903.02  <-- SCF
      5  -6.55615628E+004  7.26021525E+000  -4.07227138E-010    2998.75  <-- SCF
      6  -6.55615628E+004  7.26025464E+000  -3.59979790E-010    3095.70  <-- SCF
------------------------------------------------------------------------ <-- SCF
 
Final energy, E             =  -65561.56278401     eV
Final free energy (E-TS)    =  -65561.56278401     eV
(energies not corrected for finite basis set)
 
NB est. 0K energy (E-0.5TS)      =  -65561.56278401     eV
 
Calculating total energy with cut-off of  816.342eV.
------------------------------------------------------------------------ <-- SCF
SCF loop      Energy           Fermi           Energy gain       Timer   <-- SCF
                               energy          per atom          (sec)   <-- SCF
------------------------------------------------------------------------ <-- SCF
Initial  -6.55615628E+004  0.00000000E+000                      3131.44  <-- SCF
      1  -6.55615657E+004  7.26035524E+000   3.29107825E-005    3245.37  <-- SCF
      2  -6.55615657E+004  7.26035524E+000   2.78281252E-010    3346.96  <-- SCF
      3  -6.55615657E+004  7.26031674E+000   1.98587913E-008    3444.53  <-- SCF
      4  -6.55615657E+004  7.26030485E+000   5.10299476E-010    3539.02  <-- SCF
      5  -6.55615657E+004  7.26029452E+000  -5.03268621E-010    3625.92  <-- SCF
------------------------------------------------------------------------ <-- SCF
 
Final energy, E             =  -65561.56568188     eV
Final free energy (E-TS)    =  -65561.56568188     eV
(energies not corrected for finite basis set)
 
NB est. 0K energy (E-0.5TS)      =  -65561.56568188     eV
 
 For future reference: finite basis dEtot/dlog(Ecut) =      -0.437326eV
 Total energy corrected for finite basis set =  -65561.565679 eV
 
  =====================================================================
  +       Calculation of Nuclear Magnetic Resonance Parameters        +
  + ================================================================= +
 
  Starting Calculation of Electric Field Gradient Tensors         |<-- EFG
  +---------------- MEMORY AND SCRATCH DISK ESTIMATES PER PROCESS --------------+
  |                                                     Memory          Disk    |
  | Model and support data                             1317.4 MB         0.0 MB |
  | NMR EFG calculation requirements                    366.3 MB         0.0 MB |
  |                                               ----------------------------- |
  | Approx. total storage required per process         1683.7 MB         0.0 MB |
  |                                                                             |
  | Requirements will fluctuate during execution and may exceed these estimates |
  +-----------------------------------------------------------------------------+
  Total Time for EFG Tensors                     428.25 sec       |<-- EFG
 
  Starting Calculation of Chemical Shielding Tensors              |<-- NMR
  +---------------- MEMORY AND SCRATCH DISK ESTIMATES PER PROCESS --------------+
  |                                                     Memory          Disk    |
  | Model and support data                             1317.4 MB         0.0 MB |
  | NMR chemical shift calculation requirements         562.5 MB         0.0 MB |
  |                                               ----------------------------- |
  | Approx. total storage required per process         1879.9 MB         0.0 MB |
  |                                                                             |
  | Requirements will fluctuate during execution and may exceed these estimates |
  +-----------------------------------------------------------------------------+
  Starting k-point:   1 of   1                                    |<-- NMR
  Total Time for step 1 of 6:                   3274.50 sec       |<-- NMR
  Total Time for step 2 of 6:                   3296.22 sec       |<-- NMR
  Total Time for step 3 of 6:                   3289.54 sec       |<-- NMR
  Total Time for step 4 of 6:                   3284.62 sec       |<-- NMR
  Total Time for step 5 of 6:                   3287.73 sec       |<-- NMR
  Total Time for step 6 of 6:                   3285.21 sec       |<-- NMR
  Total Time for Chemical Shielding Tensors    28999.56 sec       |<-- NMR
 
  ========================================================================
  |           Chemical Shielding and Electric Field Gradient Tensors     |
  |----------------------------------------------------------------------|
  |     Nucleus                Shielding tensor             EFG Tensor   |
  |  Species       Ion    Iso(ppm)   Aniso(ppm)  Asym    Cq(MHz)    Eta  |
  |    O           1     -317.03     -11.71      0.42   4.118E-02   0.29 |
  |    O           2     -317.55      -7.04      0.25  -3.659E-02   0.54 |
  |    O           3     -317.43       6.87      0.28   4.563E-02   0.78 |
  |    O           4     -316.19       9.46      0.72   3.904E-02   0.68 |
  |    O           5     -318.08      -6.97      0.38  -6.520E-02   0.30 |
  |    O           6     -317.35     -14.53      0.52   4.769E-02   0.97 |
  |    O           7     -317.28     -11.06      1.00   3.015E-02   0.58 |
  |    O           8     -317.27       9.55      0.79   3.875E-02   0.68 |
  |    O           9     -163.95     155.09      0.75   1.064E+00   0.86 |
  |    O          10     -164.84     158.11      0.80   1.037E+00   0.91 |
  |    O          11      -87.38      86.59      0.06  -3.186E+00   0.07 |
  |    O          12      -12.60      60.03      0.45   3.908E+00   0.83 |
  |    O          13      -10.77      59.26      0.24   3.958E+00   0.78 |
  |    O          14     -161.04     153.33      0.77   1.094E+00   0.77 |
  |    O          15       -5.28      69.59      0.62   3.868E+00   0.84 |
  |    O          16      -83.33      87.47      0.15  -3.164E+00   0.07 |
  |    O          17      -86.54      87.32      0.22  -3.120E+00   0.10 |
  |    O          18      -11.97      59.03      0.57   3.866E+00   0.86 |
  |    O          19      -87.94      94.77      0.21  -3.198E+00   0.10 |
  |    O          20     -164.83     154.05      0.76   1.038E+00   0.90 |
  |    O          21      -14.49      58.73      0.61   3.853E+00   0.86 |
  |    O          22      -84.72      81.83      0.26  -3.093E+00   0.09 |
  |    O          23     -166.72     159.06      0.80  -1.033E+00   1.00 |
  |    O          24     -164.05     157.18      0.81   1.082E+00   0.88 |
  |    O          25      -85.25      86.77      0.17  -3.147E+00   0.08 |
  |    O          26      -13.24      57.46      0.48   3.917E+00   0.83 |
  |    O          27      -83.78      81.14      0.10  -3.226E+00   0.12 |
  |    O          28     -164.97     156.43      0.82   1.032E+00   0.91 |
  |    O          29      -85.92      86.20      0.01  -3.189E+00   0.08 |
  |    O          30      -89.09      84.16      0.11  -3.168E+00   0.12 |
  |    O          31      -84.65      89.55      0.21  -3.147E+00   0.10 |
  |    O          32      -10.38      57.72      0.54   3.918E+00   0.82 |
  |    O          33      -91.39      83.11      0.17  -3.246E+00   0.11 |
  |    O          34      -88.54      76.80      0.13  -3.198E+00   0.12 |
  |    O          35      -90.88      91.67      0.33  -3.091E+00   0.08 |
  |    O          36      -92.10      94.36      0.12  -3.248E+00   0.11 |
  |    O          37     -161.34     152.42      0.82   1.073E+00   0.78 |
  |    O          38     -163.92     149.60      0.81   1.070E+00   0.80 |
  |    O          39     -160.28     152.31      0.82   1.108E+00   0.77 |
  |    O          40     -161.50     141.67      0.79   1.077E+00   0.71 |
  |    O          41      -87.36      76.55      0.15  -3.204E+00   0.12 |
  |    O          42      -90.48      92.09      0.17  -3.207E+00   0.11 |
  |    O          43      -89.11      94.60      0.22  -3.209E+00   0.10 |
  |    O          44     -165.15     148.12      0.74   1.026E+00   0.82 |
  |    O          45      -87.62      94.40      0.19  -3.224E+00   0.10 |
  |    O          46     -162.30     142.67      0.78   1.047E+00   0.73 |
  |    O          47     -164.19     155.16      0.80   1.054E+00   0.88 |
  |    O          48      -87.11      84.00      0.17  -3.175E+00   0.11 |
  |    O          49     -164.39     158.47      0.81   1.093E+00   0.85 |
  |    O          50      -84.99      82.32      0.26  -3.098E+00   0.09 |
  |    O          51     -161.89     144.08      0.84   1.058E+00   0.73 |
  |    O          52     -163.58     157.65      0.81   1.080E+00   0.85 |
  |    O          53      -91.09      81.02      0.19  -3.220E+00   0.11 |
  |    O          54     -164.72     154.60      0.81   1.014E+00   0.93 |
  |    O          55      -91.62      76.35      0.15  -3.237E+00   0.11 |
  |    O          56     -167.27     159.40      0.83  -1.009E+00   1.00 |
  |    Zr          1     1627.83    -129.58      0.22  -3.807E+01   0.08 |
  |    Zr          2     1613.16    -119.70      0.10  -3.702E+01   0.10 |
  |    Zr          3     1609.13    -116.07      0.07  -3.796E+01   0.06 |
  |    Zr          4     1632.68    -131.29      0.18  -3.895E+01   0.13 |
  |    Zr          5     1629.49    -123.42      0.10  -3.978E+01   0.07 |
  |    Zr          6     1634.12    -126.49      0.08  -3.876E+01   0.04 |
  |    Zr          7     1628.77    -122.21      0.09  -3.998E+01   0.04 |
  |    Zr          8     1633.32    -127.90      0.20  -3.867E+01   0.13 |
  |    Zr          9     1627.93    -128.18      0.19  -3.780E+01   0.05 |
  |    Zr         10     1628.53    -123.72      0.15  -3.996E+01   0.12 |
  |    Sn          1     3253.85     -62.08      0.37   1.240E+02   0.04 |
  |    Sn          2     3256.26     -59.82      0.37   1.256E+02   0.15 |
  |    Sn          3     3249.95     -47.89      0.54   1.261E+02   0.05 |
  |    Sn          4     3249.35     -47.70      0.49   1.266E+02   0.09 |
  |    Sn          5     3252.60     -50.53      0.26   1.300E+02   0.20 |
  |    Sn          6     3249.91     -49.49      0.45   1.268E+02   0.11 |
  |    La          1     4752.42     859.56      0.05  -8.646E+01   0.08 |
  |    La          2     4750.07     870.85      0.05  -8.501E+01   0.08 |
  |    La          3     4704.55     765.60      0.03  -8.260E+01   0.05 |
  |    La          4     4707.82     757.59      0.05  -8.466E+01   0.11 |
  |    La          5     4610.81     527.92      0.07  -7.668E+01   0.11 |
  |    La          6     4657.39     627.53      0.01  -7.853E+01   0.03 |
  |    La          7     4797.16     968.24      0.01  -8.702E+01   0.02 |
  |    La          8     4662.58     617.35      0.00  -7.983E+01   0.03 |
  |    La          9     4658.13     658.75      0.09  -7.972E+01   0.13 |
  |    La         10     4704.36     752.43      0.03  -8.152E+01   0.07 |
  |    La         11     4701.50     762.68      0.04  -8.039E+01   0.10 |
  |    La         12     4652.09     634.79      0.01  -7.726E+01   0.04 |
  |    La         13     4704.68     754.18      0.04  -8.201E+01   0.09 |
  |    La         14     4663.07     651.92      0.08  -8.151E+01   0.15 |
  |    La         15     4659.42     665.62      0.10  -8.086E+01   0.16 |
  |    La         16     4706.26     770.81      0.03  -8.341E+01   0.06 |
  ========================================================================
 
 *********************** Forces ***********************
 *                                                    *
 *            Cartesian components (eV/A)             *
 * -------------------------------------------------- *
 *                   x            y            z      *
 *                                                    *
 * O         1      0.00800     -0.00248     -0.00624 *
 * O         2      0.00151      0.00439     -0.00246 *
 * O         3      0.00837     -0.00532      0.00013 *
 * O         4      0.00599     -0.00189     -0.00263 *
 * O         5     -0.01490     -0.00174      0.00265 *
 * O         6     -0.00437      0.00575     -0.00037 *
 * O         7     -0.00448     -0.00311     -0.00532 *
 * O         8     -0.00819      0.00491     -0.00424 *
 * O         9      0.00783      0.00373      0.00036 *
 * O        10     -0.00842      0.00390      0.00079 *
 * O        11     -0.00013      0.02080     -0.01416 *
 * O        12      0.00281      0.00113      0.00740 *
 * O        13     -0.00468     -0.00110     -0.00720 *
 * O        14     -0.00220      0.00364      0.00273 *
 * O        15     -0.00072      0.00231      0.00066 *
 * O        16     -0.01427     -0.00665     -0.02493 *
 * O        17     -0.02329     -0.01846     -0.00539 *
 * O        18     -0.01338      0.00769     -0.00575 *
 * O        19     -0.01623      0.01388     -0.00908 *
 * O        20     -0.00441      0.00853      0.00965 *
 * O        21      0.00737      0.00291     -0.00875 *
 * O        22      0.01416      0.00169      0.01157 *
 * O        23      0.00589     -0.01557     -0.00397 *
 * O        24      0.00236      0.01866     -0.00290 *
 * O        25     -0.00929      0.01124     -0.01900 *
 * O        26     -0.00377     -0.00387     -0.00862 *
 * O        27      0.00121     -0.01274     -0.01256 *
 * O        28      0.00871      0.00496     -0.01157 *
 * O        29      0.02517      0.02879      0.00864 *
 * O        30     -0.01131      0.01129     -0.00551 *
 * O        31      0.01699     -0.01969     -0.01055 *
 * O        32     -0.00368      0.00163     -0.00436 *
 * O        33      0.00995     -0.01495      0.02070 *
 * O        34     -0.00034      0.00985      0.01414 *
 * O        35      0.00669     -0.00389     -0.01104 *
 * O        36      0.01760     -0.00802      0.03071 *
 * O        37     -0.00787     -0.00979      0.00502 *
 * O        38     -0.00890     -0.00511     -0.00787 *
 * O        39     -0.00166     -0.01080      0.01124 *
 * O        40      0.00578      0.00384      0.01280 *
 * O        41     -0.00389     -0.01037     -0.01753 *
 * O        42     -0.01277     -0.01524      0.00357 *
 * O        43     -0.00702     -0.02186      0.00809 *
 * O        44      0.00696      0.00611     -0.00023 *
 * O        45      0.00816      0.00927      0.01361 *
 * O        46      0.00354     -0.00496      0.00604 *
 * O        47     -0.00045      0.00078     -0.01718 *
 * O        48      0.00256      0.01143     -0.00031 *
 * O        49      0.00852      0.01537     -0.00314 *
 * O        50     -0.00495      0.00278     -0.01479 *
 * O        51      0.00480     -0.00232      0.00613 *
 * O        52     -0.00670      0.00440      0.01067 *
 * O        53      0.02566     -0.01442      0.00834 *
 * O        54      0.00919      0.00070     -0.01341 *
 * O        55     -0.01985     -0.00820      0.01357 *
 * O        56     -0.01104      0.01534     -0.00650 *
 * Zr        1     -0.01667      0.02272     -0.01436 *
 * Zr        2      0.00364      0.01094     -0.00890 *
 * Zr        3     -0.00166      0.00131     -0.01014 *
 * Zr        4      0.00159     -0.00113     -0.00030 *
 * Zr        5      0.00162     -0.00325      0.01271 *
 * Zr        6      0.00350     -0.02260      0.00827 *
 * Zr        7      0.02014     -0.00570      0.01369 *
 * Zr        8     -0.01314      0.00032     -0.01659 *
 * Zr        9      0.00731      0.01814     -0.00194 *
 * Zr       10     -0.00206      0.00464      0.00050 *
 * Sn        1     -0.00054     -0.00647      0.00493 *
 * Sn        2     -0.00275     -0.00973      0.00673 *
 * Sn        3      0.00341     -0.00936      0.01344 *
 * Sn        4     -0.01489     -0.00354     -0.01281 *
 * Sn        5     -0.00645      0.00335      0.00690 *
 * Sn        6      0.02193     -0.00073      0.01864 *
 * La        1     -0.00069     -0.01121      0.01108 *
 * La        2      0.01505     -0.01447      0.00476 *
 * La        3     -0.00517      0.00487      0.01047 *
 * La        4      0.00356     -0.00360      0.00703 *
 * La        5     -0.00191      0.00049      0.00160 *
 * La        6      0.01495      0.00986     -0.00152 *
 * La        7      0.00210     -0.01708      0.01535 *
 * La        8      0.00213      0.00576     -0.01174 *
 * La        9     -0.00436     -0.00159     -0.00774 *
 * La       10     -0.00722      0.00143      0.00680 *
 * La       11     -0.00185      0.01426      0.00994 *
 * La       12     -0.01425     -0.01094     -0.00562 *
 * La       13      0.01138     -0.01339      0.00206 *
 * La       14     -0.01140     -0.00488     -0.00859 *
 * La       15      0.01329      0.01505      0.00170 *
 * La       16     -0.01319      0.00737      0.00201 *
 *                                                    *
 ******************************************************
 
 ***************** Stress Tensor *****************
 *                                               *
 *          Cartesian components (GPa)           *
 * --------------------------------------------- *
 *             x             y             z     *
 *                                               *
 *  x      0.024829      0.000100      0.002133  *
 *  y      0.000100      0.049753     -0.057408  *
 *  z      0.002133     -0.057408      0.011311  *
 *                                               *
 *  Pressure:   -0.0286                          *
 *                                               *
 *************************************************
 
 Pseudo atomic calculation performed for O 2s2 2p4
 
 Converged in 39 iterations to a total energy of -432.6554 eV
 
 
 Pseudo atomic calculation performed for Zr 4s2 4p6 4d2 5s2
 
 Converged in 38 iterations to a total energy of -1285.4931 eV
 
 
 Pseudo atomic calculation performed for Sn 4d10 5s2 5p2
 
 Converged in 48 iterations to a total energy of -2044.5414 eV
 
 
 Pseudo atomic calculation performed for La 5s2 5p6 5d1 6s2
 
 Converged in 34 iterations to a total energy of -968.0372 eV
 
Charge spilling parameter for spin component 1 = 0.23%
 
     Atomic Populations (Mulliken)
     -----------------------------
Species   Ion     s      p      d      f     Total  Charge (e)
==============================================================
  O        1     1.87   5.00   0.00   0.00   6.87    -0.87
  O        2     1.87   5.00   0.00   0.00   6.87    -0.87
  O        3     1.87   5.00   0.00   0.00   6.87    -0.87
  O        4     1.87   5.00   0.00   0.00   6.87    -0.87
  O        5     1.87   5.00   0.00   0.00   6.87    -0.87
  O        6     1.87   5.00   0.00   0.00   6.87    -0.87
  O        7     1.87   5.00   0.00   0.00   6.87    -0.87
  O        8     1.87   5.00   0.00   0.00   6.87    -0.87
  O        9     1.86   4.94   0.00   0.00   6.80    -0.80
  O       10     1.86   4.94   0.00   0.00   6.80    -0.80
  O       11     1.87   4.99   0.00   0.00   6.86    -0.86
  O       12     1.88   5.02   0.00   0.00   6.91    -0.91
  O       13     1.88   5.02   0.00   0.00   6.91    -0.91
  O       14     1.86   4.94   0.00   0.00   6.80    -0.80
  O       15     1.88   5.02   0.00   0.00   6.91    -0.91
  O       16     1.87   4.99   0.00   0.00   6.85    -0.85
  O       17     1.87   4.98   0.00   0.00   6.85    -0.85
  O       18     1.88   5.02   0.00   0.00   6.91    -0.91
  O       19     1.87   4.99   0.00   0.00   6.85    -0.85
  O       20     1.86   4.94   0.00   0.00   6.80    -0.80
  O       21     1.88   5.02   0.00   0.00   6.91    -0.91
  O       22     1.87   4.99   0.00   0.00   6.85    -0.85
  O       23     1.86   4.94   0.00   0.00   6.80    -0.80
  O       24     1.86   4.95   0.00   0.00   6.80    -0.80
  O       25     1.87   4.99   0.00   0.00   6.85    -0.85
  O       26     1.88   5.02   0.00   0.00   6.91    -0.91
  O       27     1.87   4.99   0.00   0.00   6.85    -0.85
  O       28     1.86   4.94   0.00   0.00   6.80    -0.80
  O       29     1.87   4.99   0.00   0.00   6.85    -0.85
  O       30     1.87   4.99   0.00   0.00   6.85    -0.85
  O       31     1.87   4.99   0.00   0.00   6.85    -0.85
  O       32     1.88   5.02   0.00   0.00   6.91    -0.91
  O       33     1.87   4.99   0.00   0.00   6.86    -0.86
  O       34     1.87   4.98   0.00   0.00   6.85    -0.85
  O       35     1.87   4.98   0.00   0.00   6.85    -0.85
  O       36     1.87   4.99   0.00   0.00   6.86    -0.86
  O       37     1.86   4.95   0.00   0.00   6.80    -0.80
  O       38     1.86   4.95   0.00   0.00   6.80    -0.80
  O       39     1.86   4.95   0.00   0.00   6.80    -0.80
  O       40     1.86   4.95   0.00   0.00   6.80    -0.80
  O       41     1.87   4.99   0.00   0.00   6.85    -0.85
  O       42     1.87   4.99   0.00   0.00   6.86    -0.86
  O       43     1.87   4.99   0.00   0.00   6.86    -0.86
  O       44     1.86   4.94   0.00   0.00   6.80    -0.80
  O       45     1.87   4.99   0.00   0.00   6.86    -0.86
  O       46     1.86   4.94   0.00   0.00   6.80    -0.80
  O       47     1.86   4.94   0.00   0.00   6.80    -0.80
  O       48     1.87   4.99   0.00   0.00   6.86    -0.86
  O       49     1.86   4.95   0.00   0.00   6.80    -0.80
  O       50     1.87   4.99   0.00   0.00   6.85    -0.85
  O       51     1.86   4.95   0.00   0.00   6.80    -0.80
  O       52     1.86   4.95   0.00   0.00   6.80    -0.80
  O       53     1.87   4.99   0.00   0.00   6.86    -0.86
  O       54     1.86   4.94   0.00   0.00   6.80    -0.80
  O       55     1.87   4.99   0.00   0.00   6.86    -0.86
  O       56     1.86   4.94   0.00   0.00   6.80    -0.80
  Zr       1     2.38   6.49   1.92   0.00  10.79     1.21
  Zr       2     2.37   6.50   1.92   0.00  10.79     1.21
  Zr       3     2.37   6.49   1.92   0.00  10.78     1.22
  Zr       4     2.37   6.48   1.93   0.00  10.78     1.22
  Zr       5     2.37   6.47   1.93   0.00  10.76     1.24
  Zr       6     2.37   6.48   1.93   0.00  10.77     1.23
  Zr       7     2.37   6.47   1.93   0.00  10.77     1.23
  Zr       8     2.37   6.48   1.93   0.00  10.77     1.23
  Zr       9     2.37   6.49   1.92   0.00  10.79     1.21
  Zr      10     2.37   6.47   1.93   0.00  10.77     1.23
  Sn       1     1.05   1.32  10.00   0.00  12.37     1.63
  Sn       2     1.05   1.32  10.00   0.00  12.37     1.63
  Sn       3     1.05   1.32  10.00   0.00  12.36     1.64
  Sn       4     1.05   1.32  10.00   0.00  12.36     1.64
  Sn       5     1.05   1.32  10.00   0.00  12.37     1.63
  Sn       6     1.05   1.32  10.00   0.00  12.37     1.63
  La       1     2.04   6.15   1.19   0.00   9.38     1.62
  La       2     2.04   6.14   1.19   0.00   9.38     1.62
  La       3     2.06   6.16   1.19   0.00   9.42     1.58
  La       4     2.05   6.16   1.19   0.00   9.41     1.59
  La       5     2.10   6.19   1.19   0.00   9.49     1.51
  La       6     2.09   6.18   1.19   0.00   9.46     1.54
  La       7     2.00   6.13   1.20   0.00   9.32     1.68
  La       8     2.08   6.19   1.19   0.00   9.46     1.54
  La       9     2.09   6.17   1.19   0.00   9.45     1.55
  La      10     2.07   6.16   1.19   0.00   9.42     1.58
  La      11     2.06   6.16   1.19   0.00   9.41     1.59
  La      12     2.08   6.18   1.19   0.00   9.45     1.55
  La      13     2.05   6.16   1.19   0.00   9.41     1.59
  La      14     2.08   6.18   1.19   0.00   9.45     1.55
  La      15     2.07   6.18   1.19   0.00   9.44     1.56
  La      16     2.04   6.16   1.19   0.00   9.40     1.60
==============================================================
 
            Bond              Population      Length (A)
============================================================
         O 36 -- Sn 6              0.35        2.09922
         O 45 -- Sn 5              0.35        2.10033
         O 27 -- Sn 5              0.35        2.10074
         O 43 -- Sn 4              0.35        2.10086
         O 33 -- Sn 2              0.35        2.10266
         O 42 -- Sn 3              0.35        2.10286
         O 19 -- Sn 5              0.35        2.10298
         O 53 -- Sn 1              0.34        2.10516
         O 13 -- Sn 3              0.34        2.10533
         O 55 -- Sn 1              0.35        2.10719
         O 29 -- Sn 4              0.35        2.10724
         O 13 -- Sn 4              0.34        2.10734
         O 31 -- Sn 5              0.34        2.10758
         O 48 -- Sn 2              0.34        2.10775
         O 30 -- Sn 3              0.34        2.10812
         O 16 -- Sn 6              0.35        2.10858
         O 41 -- Sn 6              0.34        2.10865
         O 32 -- Sn 2              0.34        2.10867
         O 11 -- Sn 2              0.35        2.10881
         O 34 -- Sn 4              0.34        2.10959
         O 36 -- Zr 3              0.44        2.10976
         O 26 -- Sn 6              0.34        2.11023
         O 32 -- Sn 6              0.34        2.11025
         O 25 -- Sn 3              0.35        2.11116
         O 12 -- Sn 4              0.34        2.11126
         O 50 -- Sn 3              0.34        2.11135
         O 18 -- Sn 3              0.34        2.11212
         O 49 -- Zr 4              0.42        2.11218
         O 17 -- Sn 6              0.34        2.11239
         O 12 -- Sn 1              0.33        2.11255
         O 26 -- Sn 1              0.33        2.11265
         O 10 -- Zr 6              0.43        2.11274
         O 22 -- Sn 4              0.34        2.11294
         O 24 -- Zr 8              0.42        2.11383
         O 47 -- Zr 4              0.43        2.11403
         O 18 -- Sn 1              0.34        2.11409
         O 56 -- Zr 9              0.42        2.11430
         O 52 -- Zr 1              0.43        2.11439
         O 49 -- Zr 5              0.42        2.11442
         O 52 -- Zr 10             0.42        2.11512
         O 39 -- Zr 8              0.42        2.11518
         O 23 -- Zr 7              0.42        2.11543
         O 35 -- Sn 5              0.33        2.11545
         O 23 -- Zr 6              0.43        2.11554
         O 43 -- Zr 2              0.44        2.11555
         O 20 -- Zr 7              0.43        2.11559
         O 15 -- Sn 5              0.33        2.11561
         O 21 -- Sn 1              0.34        2.11566
         O 9  -- Zr 10             0.43        2.11599
         O 28 -- Zr 5              0.42        2.11606
         O 15 -- Sn 2              0.33        2.11633
         O 14 -- Zr 5              0.43        2.11663
         O 21 -- Sn 2              0.33        2.11690
         O 24 -- Zr 10             0.42        2.11700
         O 14 -- Zr 10             0.43        2.11709
         O 45 -- Zr 1              0.44        2.11716
         O 56 -- Zr 1              0.42        2.11727
         O 29 -- Zr 5              0.46        2.11740
         O 19 -- Zr 9              0.45        2.11761
         O 28 -- Zr 9              0.43        2.11774
         O 37 -- Zr 9              0.43        2.11792
         O 31 -- Zr 6              0.45        2.11811
         O 54 -- Zr 1              0.43        2.11815
         O 38 -- Zr 2              0.43        2.11824
         O 33 -- Zr 3              0.44        2.11836
         O 9  -- Zr 7              0.43        2.11861
         O 39 -- Zr 4              0.42        2.11870
         O 42 -- Zr 2              0.44        2.11874
         O 44 -- Zr 3              0.44        2.11925
         O 30 -- Zr 10             0.46        2.11953
         O 10 -- Zr 8              0.43        2.12010
         O 27 -- Zr 7              0.45        2.12026
         O 53 -- Zr 3              0.44        2.12042
         O 37 -- Zr 4              0.42        2.12130
         O 47 -- Zr 6              0.43        2.12135
         O 38 -- Zr 7              0.42        2.12138
         O 17 -- Zr 8              0.45        2.12140
         O 51 -- Zr 2              0.43        2.12167
         O 54 -- Zr 8              0.43        2.12237
         O 40 -- Zr 7              0.43        2.12244
         O 35 -- Zr 2              0.46        2.12285
         O 16 -- Zr 6              0.45        2.12347
         O 20 -- Zr 5              0.43        2.12351
         O 46 -- Zr 3              0.43        2.12396
         O 11 -- Zr 9              0.45        2.12441
         O 55 -- Zr 2              0.44        2.12443
         O 46 -- Zr 5              0.43        2.12448
         O 25 -- Zr 8              0.45        2.12458
         O 48 -- Zr 1              0.44        2.12527
         O 34 -- Zr 4              0.46        2.12539
         O 41 -- Zr 4              0.46        2.12555
         O 51 -- Zr 6              0.42        2.12561
         O 40 -- Zr 3              0.43        2.12578
         O 50 -- Zr 1              0.45        2.12676
         O 22 -- Zr 9              0.45        2.12752
         O 44 -- Zr 10             0.43        2.12791
         O 2  -- La 7              0.18        2.35801
         O 6  -- La 1              0.18        2.35924
         O 4  -- La 16             0.17        2.35930
         O 2  -- La 2              0.19        2.35937
         O 1  -- La 1              0.19        2.35938
         O 7  -- La 7              0.18        2.35954
         O 8  -- La 4              0.18        2.35955
         O 4  -- La 4              0.18        2.35966
         O 7  -- La 16             0.19        2.35996
         O 5  -- La 15             0.17        2.36023
         O 5  -- La 2              0.17        2.36038
         O 8  -- La 13             0.16        2.36064
         O 1  -- La 15             0.18        2.36071
         O 3  -- La 3              0.16        2.36087
         O 3  -- La 14             0.17        2.36114
         O 2  -- La 13             0.19        2.36119
         O 7  -- La 3              0.19        2.36140
         O 1  -- La 10             0.18        2.36145
         O 6  -- La 9              0.17        2.36152
         O 6  -- La 14             0.18        2.36166
         O 7  -- La 11             0.17        2.36168
         O 1  -- La 11             0.17        2.36173
         O 8  -- La 10             0.17        2.36237
         O 4  -- La 9              0.17        2.36280
         O 2  -- La 12             0.18        2.36305
         O 5  -- La 8              0.18        2.36309
         O 3  -- La 8              0.17        2.36322
         O 4  -- La 6              0.17        2.36326
         O 5  -- La 6              0.17        2.36356
         O 6  -- La 12             0.15        2.36358
         O 8  -- La 5              0.17        2.36373
         O 3  -- La 5              0.16        2.36415
         O 47 -- La 11             0.12        2.65839
         O 49 -- La 12             0.12        2.66135
         O 46 -- La 15             0.13        2.66158
         O 52 -- La 6              0.14        2.66192
         O 56 -- La 2              0.13        2.66262
         O 51 -- La 14             0.14        2.66271
         O 54 -- La 3              0.14        2.66288
         O 20 -- La 12             0.13        2.66329
         O 10 -- La 13             0.13        2.66380
         O 28 -- La 16             0.13        2.66405
         O 40 -- La 9              0.14        2.66434
         O 23 -- La 11             0.11        2.66456
         O 38 -- La 10             0.13        2.66457
         O 9  -- La 11             0.12        2.66539
         O 24 -- La 10             0.13        2.66677
         O 56 -- La 7              0.11        2.66719
         O 37 -- La 8              0.14        2.66728
         O 44 -- La 13             0.13        2.66824
         O 39 -- La 3              0.13        2.66863
         O 37 -- La 2              0.12        2.66895
         O 18 -- La 5              0.24        2.66943
         O 53 -- La 9              0.18        2.67038
         O 39 -- La 8              0.14        2.67058
         O 21 -- La 6              0.24        2.67126
         O 38 -- La 4              0.14        2.67174
         O 55 -- La 10             0.18        2.67189
         O 54 -- La 7              0.11        2.67190
         O 48 -- La 6              0.18        2.67195
         O 15 -- La 12             0.23        2.67232
         O 36 -- La 15             0.17        2.67262
         O 32 -- La 12             0.22        2.67311
         O 50 -- La 5              0.19        2.67323
         O 14 -- La 6              0.13        2.67331
         O 51 -- La 1              0.13        2.67359
         O 28 -- La 7              0.11        2.67360
         O 41 -- La 12             0.18        2.67405
         O 23 -- La 7              0.12        2.67412
         O 26 -- La 5              0.24        2.67414
         O 45 -- La 5              0.19        2.67416
         O 52 -- La 2              0.12        2.67427
         O 10 -- La 7              0.11        2.67475
         O 12 -- La 9              0.24        2.67495
         O 33 -- La 13             0.17        2.67496
         O 42 -- La 16             0.17        2.67519
         O 14 -- La 16             0.13        2.67522
         O 44 -- La 2              0.13        2.67537
         O 43 -- La 3              0.17        2.67618
         O 24 -- La 13             0.12        2.67624
         O 43 -- La 14             0.18        2.67641
         O 42 -- La 4              0.18        2.67665
         O 19 -- La 9              0.18        2.67703
         O 47 -- La 1              0.14        2.67759
         O 12 -- La 6              0.24        2.67774
         O 27 -- La 12             0.17        2.67806
         O 11 -- La 8              0.18        2.67822
         O 13 -- La 11             0.22        2.67842
         O 16 -- La 5              0.19        2.67866
         O 13 -- La 15             0.23        2.67883
         O 33 -- La 4              0.18        2.67911
         O 40 -- La 4              0.14        2.67921
         O 15 -- La 13             0.24        2.67954
         O 21 -- La 8              0.25        2.67984
         O 36 -- La 2              0.17        2.67989
         O 34 -- La 11             0.17        2.67992
         O 26 -- La 10             0.24        2.68004
         O 9  -- La 10             0.13        2.68021
         O 31 -- La 5              0.18        2.68040
         O 49 -- La 1              0.14        2.68072
         O 32 -- La 14             0.24        2.68120
         O 18 -- La 8              0.24        2.68126
         O 17 -- La 15             0.18        2.68142
         O 55 -- La 1              0.18        2.68156
         O 22 -- La 9              0.19        2.68177
         O 46 -- La 1              0.14        2.68234
         O 35 -- La 16             0.19        2.68254
         O 25 -- La 15             0.18        2.68257
         O 30 -- La 11             0.17        2.68318
         O 20 -- La 7              0.12        2.68380
         O 29 -- La 6              0.18        2.68393
         O 19 -- La 16             0.17        2.68395
         O 11 -- La 14             0.19        2.68399
         O 35 -- La 3              0.19        2.68410
         O 25 -- La 8              0.19        2.68474
         O 53 -- La 1              0.18        2.68477
         O 34 -- La 3              0.18        2.68531
         O 17 -- La 10             0.18        2.68552
         O 29 -- La 15             0.18        2.68578
         O 31 -- La 13             0.18        2.68654
         O 22 -- La 14             0.19        2.68736
         O 30 -- La 16             0.18        2.68744
         O 45 -- La 3              0.17        2.68764
         O 48 -- La 4              0.19        2.68851
         O 16 -- La 14             0.19        2.69032
         O 27 -- La 9              0.18        2.69122
         O 41 -- La 2              0.18        2.69282
         O 50 -- La 4              0.19        2.69462
         O 15 -- O 32             -0.05        2.79669
         O 26 -- O 55             -0.06        2.79740
         O 32 -- O 41             -0.06        2.79759
         O 17 -- O 36             -0.06        2.79770
         O 12 -- O 53             -0.06        2.79795
         O 13 -- O 30             -0.06        2.79801
         O 15 -- O 33             -0.06        2.79825
         O 13 -- O 34             -0.06        2.79828
         O 18 -- O 26             -0.05        2.79891
         O 30 -- O 42             -0.06        2.79904
         O 16 -- O 26             -0.06        2.79910
         O 12 -- O 21             -0.05        2.79963
         O 15 -- O 27             -0.06        2.79982
         O 34 -- O 43             -0.06        2.79991
         O 13 -- O 25             -0.06        2.79994
         O 31 -- O 45             -0.06        2.80045
         O 36 -- O 41             -0.06        2.80062
         O 53 -- O 55             -0.06        2.80074
         O 13 -- O 29             -0.06        2.80140
         O 33 -- O 48             -0.06        2.80248
         O 12 -- O 29             -0.06        2.80265
         O 19 -- O 27             -0.06        2.80268
         O 11 -- O 32             -0.06        2.80279
         O 18 -- O 21             -0.05        2.80391
         O 21 -- O 48             -0.06        2.80405
         O 18 -- O 50             -0.06        2.80409
         O 19 -- O 35             -0.06        2.80458
         O 35 -- O 45             -0.06        2.80469
         O 23 -- O 47             -0.04        2.80579
         O 12 -- O 22             -0.06        2.80680
         O 20 -- O 49             -0.04        2.80711
         O 11 -- O 21             -0.06        2.80806
         O 22 -- O 43             -0.06        2.80826
         O 42 -- O 50             -0.06        2.80863
         O 17 -- O 26             -0.06        2.80934
         O 9  -- O 23             -0.04        2.80964
         O 39 -- O 54             -0.03        2.81012
         O 37 -- O 56             -0.03        2.81069
         O 28 -- O 56             -0.03        2.81116
         O 54 -- O 56             -0.03        2.81134
         O 16 -- O 32             -0.05        2.81136
         O 52 -- O 56             -0.03        2.81140
         O 15 -- O 31             -0.05        2.81153
         O 10 -- O 24             -0.03        2.81160
         O 14 -- O 28             -0.03        2.81185
         O 18 -- O 25             -0.05        2.81256
         O 14 -- O 52             -0.03        2.81319
         O 10 -- O 23             -0.03        2.81331
         O 37 -- O 39             -0.03        2.81540
         O 9  -- O 24             -0.03        2.81551
         O 36 -- O 46             -0.03        2.81602
         O 41 -- O 49             -0.03        2.81609
         O 38 -- O 55             -0.03        2.81610
         O 40 -- O 53             -0.03        2.81628
         O 34 -- O 47             -0.03        2.81710
         O 20 -- O 23             -0.03        2.81822
         O 10 -- O 54             -0.03        2.81828
         O 33 -- O 44             -0.03        2.81840
         O 48 -- O 52             -0.03        2.81852
         O 24 -- O 44             -0.03        2.81857
         O 19 -- O 28             -0.03        2.81858
         O 20 -- O 27             -0.03        2.81955
         O 44 -- O 52             -0.03        2.81959
         O 9  -- O 30             -0.03        2.81971
         O 47 -- O 49             -0.03        2.81971
         O 9  -- O 38             -0.03        2.82003
         O 36 -- O 44             -0.03        2.82025
         O 45 -- O 54             -0.03        2.82033
         O 43 -- O 51             -0.03        2.82047
         O 20 -- O 28             -0.03        2.82141
         O 10 -- O 31             -0.03        2.82145
         O 17 -- O 24             -0.03        2.82168
         O 47 -- O 51             -0.03        2.82169
         O 38 -- O 42             -0.03        2.82185
         O 38 -- O 40             -0.03        2.82187
         O 46 -- O 49             -0.03        2.82443
         O 45 -- O 50             -0.03        2.82481
         O 35 -- O 42             -0.03        2.82572
         O 19 -- O 22             -0.03        2.82576
         O 29 -- O 46             -0.03        2.82619
         O 35 -- O 43             -0.03        2.82637
         O 34 -- O 39             -0.03        2.82762
         O 27 -- O 40             -0.03        2.82779
         O 16 -- O 51             -0.03        2.82837
         O 51 -- O 55             -0.03        2.82904
         O 33 -- O 40             -0.03        2.82932
         O 37 -- O 41             -0.03        2.82961
         O 11 -- O 37             -0.03        2.82966
         O 14 -- O 29             -0.03        2.82982
         O 14 -- O 30             -0.03        2.83060
         O 25 -- O 39             -0.03        2.83104
         O 46 -- O 53             -0.03        2.83301
         O 16 -- O 31             -0.03        2.83628
         O 17 -- O 25             -0.03        2.83804
         O 11 -- O 22             -0.03        2.83965
         O 48 -- O 50             -0.03        2.84210
============================================================
 

Writing analysis data to 015.castep_bin

Writing model to 015.check
 
 A BibTeX formatted list of references used in this run has been written to 
 015.bib
 
Initialisation time =     54.12 s
Calculation time    =  33475.72 s
Finalisation time   =     47.04 s
Total time          =  33576.88 s
Peak Memory Use     = 2839552 kB
  
Overall parallel efficiency rating: Good (79%)                                  
  
Data was distributed by:-
G-vector (4-way); efficiency rating: Good (79%)                                 
k-point (14-way); efficiency rating: Excellent (99%)                            
