 +-------------------------------------------------+
 |                                                 |
 |      CCC   AA    SSS  TTTTT  EEEEE  PPPP        |
 |     C     A  A  S       T    E      P   P       |
 |     C     AAAA   SS     T    EEE    PPPP        |
 |     C     A  A     S    T    E      P           |
 |      CCC  A  A  SSS     T    EEEEE  P           |
 |                                                 |
 +-------------------------------------------------+
 |                                                 |
 | Welcome to Academic Release CASTEP version 16.11|          
 | Ab Initio Total Energy Program                  |
 |                                                 |
 | Authors:                                        |
 | M. Segall, M. Probert, C. Pickard, P. Hasnip,   |
 | S. Clark, K. Refson, J. R. Yates, M. Payne      |
 |                                                 |
 | Contributors:                                   |
 | P. Lindan, P. Haynes, J. White, V. Milman,      |
 | N. Govind, M. Gibson, P. Tulip, V. Cocula,      |
 | B. Montanari, D. Quigley, M. Glover,            |
 | L. Bernasconi, A. Perlov, M. Plummer,           |
 | E. McNellis, J. Meyer, J. Gale, D. Jochym       |
 | J. Aarons, B. Walker, R. Gillen, D. Jones       |
 | T. Green, I. J. Bush, C. J. Armstrong,          |
 | E. J. Higgins, E. L. Brown, M. S. McFly         |
 |                                                 |
 | Copyright (c) 2000 - 2015                       |
 |                                                 |
 |     Distributed under the terms of an           |
 |     Agreement between the United Kingdom        |
 |     Car-Parrinello (UKCP) Consortium,           |
 |     Daresbury Laboratory and Accelrys, Inc.     |
 |                                                 |
 | Please cite                                     |
 |                                                 |
 |     "First principles methods using CASTEP"     |
 |                                                 |
 |         Zeitschrift fuer Kristallographie       |
 |           220(5-6) pp. 567-570 (2005)           |
 |                                                 |
 | S. J. Clark, M. D. Segall, C. J. Pickard,       |
 | P. J. Hasnip, M. J. Probert, K. Refson,         |
 | M. C. Payne                                     |
 |                                                 |
 |       in all publications arising from          |
 |              your use of CASTEP                 |
 |                                                 |
 +-------------------------------------------------+
 
 
 Compiled for linux_x86_64_ifort16 on Sat, 23 Jul 2016 23:44:54 +0100
 from code version 
 203e84763863+ Castep161_branch Fri, 04 Mar 2016 19:21:07 +0000
 Compiler: Intel Fortran 16.0.3.210; Optimisation: fast
 MATHLIBS: Intel MKL(11.3.3) (LAPACK version 3.6.0)
 FFT Lib : mkl
 Fundamental constants values: CODATA 2010
 
 Run started: Fri, 09 Mar 2018 23:44:40 +0000
 +-------------------------------------------------+
 |                                                 |
 |           N   N    M   M    RRRR                |
 |           NN  N    MM MM    R   R               |
 |           N N N    M M M    RRRR                |
 |           N  NN    M   M    R  R                |
 |           N   N    M   M    R   R               |
 |                                                 |
 +-------------------------------------------------+
 |                                                 |
 | Welcome to Materials Studio CASTEP-NMR          |
 |                                                 |
 | Authors:                                        |
 | J.R. Yates, C.J. Pickard, F. Mauri              |
 |                                                 |
 | Contributors:                                   |
 | T.F.G. Green, S.A. Joyce                        |
 |                                                 |
 | Copyright (c) 2004 - 2015                       |
 |                                                 |
 | Please cite the appropriate publications in all |
 | work arising from your use of CASTEP NMR.       |
 |                                                 |
 | For NMR Shielding Tensors cite:                 |
 |    "All-electron magnetic response with         |
 |    pseudopotentials: NMR chemical shifts",      |
 |    C. J. Pickard, F. Mauri;                     |
 |    Physical Review B63 245101 (2001), and       |
 |                                                 |
 |    "Calculation of NMR Chemical Shifts          |
 |    for extended systems using                   |
 |    Ultrasoft Pseudopotentials",                 |
 |    J. R. Yates, C. J. Pickard and F. Mauri      |
 |    Physical Review B76 024401 (2007)            |
 |                                                 |
 | For Electric Field Gradients cite:              |
 |   "Accurate First Principles Prediction of 17O  |
 |    NMR Parameters in SiO2: Assignment of the    |
 |    Zeolite Ferrierite Spectrum"                 |
 |    M. Profeta, F. Mauri and C. J. Pickard       |
 |    J. Amer. Chem. Soc. 125 541 (2003)           |
 |                                                 |
 | For Spin-Spin (J) Couplings cite:               |
 |   "A first principles theory of NMR J-coupling  |
 |   in solid-state systems"                       |
 |   S.A. Joyce, J.R. Yates, C.J. Pickard, F. Mauri|
 |   J. Chem. Phys. 127 204107 (2007)              |
 |                                                 |
 |   "Relativistic NMR J-coupling with ultrasoft   |
 |   pseudopotentials and the zeroth-order regular |
 |   approximation"                                |
 |   T.F.G. Green and J.R. Yates                   |
 |   J. Chem. Phys. 140 234106 (2014)              |
 |                                                 |
 +-------------------------------------------------+
 
 
 Atomic calculation performed for O: 1s2 2s2 2p4
 
 Converged in 44 iterations to an ae energy of -2040.855 eV
 
 
 Atomic calculation performed for O: 1s2 2s2 2p4
 
 Exceeded max iterations: converged to 0.000000062 eV
 
   ============================================================                
   | Pseudopotential Report - Date of generation  9-03-2018   |                
   ------------------------------------------------------------                
   | Element: O Ionic charge:  6.00 Level of theory: PBE      |                
   | Atomic Solver: ZORA (scalar)                             |                
   |                                                          |                
   |               Reference Electronic Structure             |                
   |         Orbital         Occupation         Energy        |                
   |            2s              2.000           -0.881        |                
   |            2p              4.000           -0.332        |                
   |                                                          |                
   |                 Pseudopotential Definition               |                
   |        Beta     l      e      Rc     scheme   norm       |                
   |          1      0   -0.881   1.100     qc      0         |                
   |          2      0    0.250   1.100     qc      0         |                
   |          3      1   -0.332   1.100     qc      0         |                
   |          4      1    0.250   1.100     qc      0         |                
   |         loc     2    0.000   1.100     pn      0         |                
   |                                                          |                
   | Augmentation charge Rinner = 0.769                       |                
   | Partial core correction Rc = 0.769                       |                
   ------------------------------------------------------------                
   | "2|1.1|15|18|20|20:21(qc=7)"                             |                
   ------------------------------------------------------------                
   |      Author: Chris J. Pickard, Cambridge University      |                
   ============================================================                
 
 Atomic calculation performed for Zr: 1s2 2s2 2p6 3s2 3p6 3d10 4s2 4p6 4d2 5s2
 
 Converged in 53 iterations to an ae energy of -97719.888 eV
 
 
 Atomic calculation performed for Zr: 1s2 2s2 2p6 3s2 3p6 3d10 4s2 4p6 4d2 5s2
 
 Exceeded max iterations: converged to 0.000000970 eV
 
 Warning: ion_atom_descreen_psp: negative charge density encountered
   ============================================================                
   | Pseudopotential Report - Date of generation  9-03-2018   |                
   ------------------------------------------------------------                
   | Element: Zr Ionic charge: 12.00 Level of theory: PBE     |                
   | Atomic Solver: ZORA (scalar)                             |                
   |                                                          |                
   |               Reference Electronic Structure             |                
   |         Orbital         Occupation         Energy        |                
   |            4s              2.000           -2.003        |                
   |            4p              6.000           -1.193        |                
   |            5s              2.000           -0.163        |                
   |            4d              2.000           -0.132        |                
   |                                                          |                
   |                 Pseudopotential Definition               |                
   |        Beta     l      e      Rc     scheme   norm       |                
   |          1      0   -2.003   2.105     qc      0         |                
   |          2      0   -0.163   2.105     qc      0         |                
   |          3      0    0.250   2.105     qc      0         |                
   |          4      1   -1.193   2.105     qc      0         |                
   |          5      1    0.250   2.105     qc      0         |                
   |          6      2   -0.132   2.105     qc      0         |                
   |          7      2    0.250   2.105     qc      0         |                
   |         loc     3    0.000   2.105     pn      0         |                
   |                                                          |                
   | Augmentation charge Rinner = 1.471                       |                
   | Partial core correction Rc = 1.471                       |                
   ------------------------------------------------------------                
   | "3|2.1|7|8|9|40U:50:41:42"                               |                
   ------------------------------------------------------------                
   |      Author: Chris J. Pickard, Cambridge University      |                
   ============================================================                
 
 Atomic calculation performed for Sn:
 1s2 2s2 2p6 3s2 3p6 3d10 4s2 4p6 4d10 5s2 5p2
 
 Converged in 58 iterations to an ae energy of -167539.320 eV
 
 
 Atomic calculation performed for Sn:
 1s2 2s2 2p6 3s2 3p6 3d10 4s2 4p6 4d10 5s2 5p2
 
 Exceeded max iterations: converged to 0.000001154 eV
 
   ============================================================                
   | Pseudopotential Report - Date of generation  9-03-2018   |                
   ------------------------------------------------------------                
   | Element: Sn Ionic charge: 14.00 Level of theory: PBE     |                
   | Atomic Solver: ZORA (scalar)                             |                
   |                                                          |                
   |               Reference Electronic Structure             |                
   |         Orbital         Occupation         Energy        |                
   |            4d             10.000           -0.950        |                
   |            5s              2.000           -0.388        |                
   |            5p              2.000           -0.136        |                
   |                                                          |                
   |                 Pseudopotential Definition               |                
   |        Beta     l      e      Rc     scheme   norm       |                
   |          1      0   -0.388   2.199     qc      0         |                
   |          2      0    0.250   2.199     qc      0         |                
   |          3      1   -0.136   2.199     qc      0         |                
   |          4      1    0.250   2.199     qc      0         |                
   |          5      2   -0.950   2.199     qc      0         |                
   |          6      2    0.250   2.199     qc      0         |                
   |         loc     3    0.000   2.199     pn      0         |                
   |                                                          |                
   | Augmentation charge Rinner = 1.537                       |                
   | Partial core correction Rc = 1.537                       |                
   ------------------------------------------------------------                
   | "3|2.2|7|8|9|50:51:42"                                   |                
   ------------------------------------------------------------                
   |      Author: Chris J. Pickard, Cambridge University      |                
   ============================================================                
 
 Atomic calculation performed for La:
 1s2 2s2 2p6 3s2 3p6 3d10 4s2 4p6 4d10 5s2 5p6 5d1 6s2
 
 Converged in 56 iterations to an ae energy of -230121.495 eV
 
 
 Atomic calculation performed for La:
 1s2 2s2 2p6 3s2 3p6 3d10 4s2 4p6 4d10 5s2 5p6 5d1 6s2
 
 Exceeded max iterations: converged to 0.000000907 eV
 
 Warning: ion_atom_descreen_psp: negative charge density encountered
   ============================================================                
   | Pseudopotential Report - Date of generation  9-03-2018   |                
   ------------------------------------------------------------                
   | Element: La Ionic charge: 11.00 Level of theory: PBE     |                
   | Atomic Solver: ZORA (scalar)                             |                
   |                                                          |                
   |               Reference Electronic Structure             |                
   |         Orbital         Occupation         Energy        |                
   |            5s              2.000           -1.430        |                
   |            5p              6.000           -0.823        |                
   |            6s              2.000           -0.135        |                
   |            5d              1.000           -0.114        |                
   |                                                          |                
   |                 Pseudopotential Definition               |                
   |        Beta     l      e      Rc     scheme   norm       |                
   |          1      0   -1.430   2.298     qc      0         |                
   |          2      0   -0.135   2.298     qc      0         |                
   |          3      0    0.250   2.298     qc      0         |                
   |          4      1   -0.823   2.298     qc      0         |                
   |          5      1    0.250   2.298     qc      0         |                
   |          6      2   -0.114   2.298     qc      0         |                
   |          7      2    0.250   2.298     qc      0         |                
   |         loc     2    0.000   2.298     pn      0         |                
   |                                                          |                
   | Augmentation charge Rinner = 1.606                       |                
   | Partial core correction Rc = 1.606                       |                
   ------------------------------------------------------------                
   | "2|2.3|5|6|7|50U:60:51:52(qc=4.5)"                       |                
   ------------------------------------------------------------                
   |      Author: Chris J. Pickard, Cambridge University      |                
   ============================================================                
 
 Pseudo atomic calculation performed for O 2s2 2p4
 
 Converged in 39 iterations to a total energy of -432.6554 eV
 
 
 Pseudo atomic calculation performed for Zr 4s2 4p6 4d2 5s2
 
 Converged in 38 iterations to a total energy of -1285.4931 eV
 
 
 Pseudo atomic calculation performed for Sn 4d10 5s2 5p2
 
 Converged in 48 iterations to a total energy of -2044.5414 eV
 
 
 Pseudo atomic calculation performed for La 5s2 5p6 5d1 6s2
 
 Converged in 34 iterations to a total energy of -968.0372 eV
 
 Calculation parallelised over 56 processes.
 Data is distributed by G-vector(4-way) and k-point(14-way)

 ************************************ Title ************************************
 nmr testing

 ***************************** General Parameters ******************************
  
 output verbosity                               : normal  (1)
 write checkpoint data to                       : 022.check
 type of calculation                            : Magnetic Resonance
 stress calculation                             : on
 density difference calculation                 : off
 electron localisation func (ELF) calculation   : off
 Hirshfeld analysis                             : off
 unlimited duration calculation
 timing information                             : on
 memory usage estimate                          : on
 write final potential to formatted file        : off
 write final density to formatted file          : off
 write structure in CIF formatted file          : on
 write structure in CELL formatted file         : on
 write BibTeX reference list                    : on
 write OTFG pseudopotential files               : on
 checkpoint writing                             : both castep_bin and check files
  
 output         length unit                     : A
 output           mass unit                     : amu
 output           time unit                     : ps
 output         charge unit                     : e
 output           spin unit                     : hbar/2
 output         energy unit                     : eV
 output          force unit                     : eV/A
 output       velocity unit                     : A/ps
 output       pressure unit                     : GPa
 output     inv_length unit                     : 1/A
 output      frequency unit                     : cm-1
 output force constant unit                     : eV/A**2
 output         volume unit                     : A**3
 output   IR intensity unit                     : (D/A)**2/amu
 output         dipole unit                     : D
 output         efield unit                     : eV/A/e
 output        entropy unit                     : J/mol/K
  
 wavefunctions paging                           : none
 random number generator seed                   : randomised (234442849)
 data distribution                              : optimal for this architecture
 optimization strategy                          : maximize speed(+++)

 *********************** Exchange-Correlation Parameters ***********************
  
 using functional                               : Perdew Burke Ernzerhof
 relativistic treatment                         : ZORA
 DFT+D: Semi-empirical dispersion correction    : off

 ************************* Pseudopotential Parameters **************************
  
 pseudopotential representation                 : reciprocal space
 <beta|phi> representation                      : reciprocal space
 spin-orbit coupling                            : off

 **************************** Basis Set Parameters *****************************
  
 plane wave basis set cut-off                   :   816.3416   eV
 size of standard grid                          :     1.7500
 size of   fine   gmax                          :    25.6161   1/A
 finite basis set correction                    : automatic
 number of sample energies                      :          3
           sample  spacing                      :     5.0000   eV

 **************************** Electronic Parameters ****************************
  
 number of  electrons                           :  716.0    
 net charge of system                           :  0.000    
 treating system as non-spin-polarized
 number of bands                                :        430

 ********************* Electronic Minimization Parameters **********************
  
 Method: Treating system as metallic with density mixing treatment of electrons,
         and number of  SD  steps               :          1
         and number of  CG  steps               :          4
  
 total energy / atom convergence tol.           : 0.1000E-08   eV
 eigen-energy convergence tolerance             : 0.2458E-09   eV
 max force / atom convergence tol.              : ignored
 convergence tolerance window                   :          3   cycles
 max. number of SCF cycles                      :         50
 number of fixed-spin iterations                :         10
 smearing scheme                                : Gaussian
 smearing width                                 : 0.2000       eV
 Fermi energy convergence tolerance             : 0.2721E-13   eV
 periodic dipole correction                     : NONE

 ************************** Density Mixing Parameters **************************
  
 density-mixing scheme                          : Broyden
 max. length of mixing history                  :         20
 charge density mixing amplitude                : 0.8000    
 cut-off energy for mixing                      :  816.3       eV

 *********************** Population Analysis Parameters ************************
  
 Population analysis with cutoff                :  3.000       A

 ************************ Magnetic Resonance Parameters ************************
  
 Magnetic Resonance Property                    : Chemical Shielding + EFG
 Position Operator Method                       : crystal
 max. number of MagRes CG steps                 :        250
 convergence tolerance window                   :          2   cycles
 energy convergence tolerance                   : 0.1000E-11   eV
 band convergence tolerance                     : 0.1000E-08   eV

 *******************************************************************************
  
 
                           -------------------------------
                                      Unit Cell
                           -------------------------------
        Real Lattice(A)                      Reciprocal Lattice(1/A)
  10.9085054  -0.0017977   0.0002955        0.5759896   0.0000950  -0.0000155
  -0.0017980  10.9057195  -0.0058954        0.0000949   0.5761369   0.0003114
   0.0002944  -0.0058946  10.9052686       -0.0000156   0.0003115   0.5761607
 
                       Lattice parameters(A)       Cell Angles
                    a =   10.908506          alpha =   90.061943
                    b =   10.905721          beta  =   89.996896
                    c =   10.905270          gamma =   90.018889
 
                       Current cell volume = 1297.345960       A**3
 
                           -------------------------------
                                     Cell Contents
                           -------------------------------
                         Total number of ions in cell =   88
                      Total number of species in cell =    4
                        Max number of any one species =   56
 
            xxxxxxxxxxxxxxxxxxxxxxxxxxxxxxxxxxxxxxxxxxxxxxxxxxxxxxxxxxxx
            x  Element    Atom        Fractional coordinates of atoms  x
            x            Number           u          v          w      x
            x----------------------------------------------------------x
            x  O            1         0.125264   0.125047   0.125064   x 
            x  O            2         0.624996   0.125026   0.625119   x 
            x  O            3         0.125604   0.625039   0.625143   x 
            x  O            4         0.624653   0.624989   0.125031   x 
            x  O            5         0.874997   0.374685   0.374997   x 
            x  O            6         0.875024   0.875402   0.875270   x 
            x  O            7         0.374974   0.374903   0.874982   x 
            x  O            8         0.375221   0.875130   0.375009   x 
            x  O            9         0.420971   0.125828   0.125576   x 
            x  O           10         0.330548   0.124722   0.624563   x 
            x  O           11         0.831447   0.625475   0.625122   x 
            x  O           12         0.918967   0.625072   0.125165   x 
            x  O           13         0.124635   0.420902   0.123983   x 
            x  O           14         0.624486   0.328749   0.125378   x 
            x  O           15         0.626192   0.829097   0.624224   x 
            x  O           16         0.123894   0.921318   0.623962   x 
            x  O           17         0.124899   0.123237   0.421020   x 
            x  O           18         0.123997   0.625889   0.329409   x 
            x  O           19         0.626210   0.624602   0.829145   x 
            x  O           20         0.624678   0.125702   0.919650   x 
            x  O           21         0.874871   0.669033   0.374894   x 
            x  O           22         0.875070   0.581113   0.874963   x 
            x  O           23         0.374462   0.080272   0.875338   x 
            x  O           24         0.375044   0.170815   0.374029   x 
            x  O           25         0.170371   0.374706   0.374633   x 
            x  O           26         0.080246   0.874771   0.374763   x 
            x  O           27         0.579453   0.874974   0.874575   x 
            x  O           28         0.670766   0.376142   0.874595   x 
            x  O           29         0.874960   0.376520   0.079185   x 
            x  O           30         0.375026   0.374309   0.170494   x 
            x  O           31         0.375067   0.874978   0.669915   x 
            x  O           32         0.875083   0.874405   0.580604   x 
            x  O           33         0.670444   0.874689   0.375841   x 
            x  O           34         0.079327   0.375640   0.875862   x 
            x  O           35         0.375137   0.669641   0.875169   x 
            x  O           36         0.875062   0.079791   0.375700   x 
            x  O           37         0.874389   0.375672   0.670801   x 
            x  O           38         0.373785   0.876003   0.080002   x 
            x  O           39         0.125064   0.329923   0.625373   x 
            x  O           40         0.625113   0.920131   0.125077   x 
            x  O           41         0.920696   0.124083   0.624088   x 
            x  O           42         0.330737   0.624644   0.124810   x 
            x  O           43         0.123784   0.624555   0.920921   x 
            x  O           44         0.624460   0.125401   0.329378   x 
            x  O           45         0.419285   0.624835   0.625058   x 
            x  O           46         0.830620   0.125240   0.125224   x 
            x  O           47         0.125302   0.125644   0.830383   x 
            x  O           48         0.626606   0.625046   0.420919   x 
            x  O           49         0.874603   0.169260   0.874429   x 
            x  O           50         0.374840   0.580660   0.375213   x 
            x  O           51         0.170705   0.874375   0.874521   x 
            x  O           52         0.578449   0.374486   0.374571   x 
            x  O           53         0.875120   0.873881   0.170116   x 
            x  O           54         0.375526   0.374668   0.580728   x 
            x  O           55         0.124362   0.829177   0.126330   x 
            x  O           56         0.626137   0.420880   0.625307   x 
            x  Zr           1         0.500064   0.500141   0.500393   x 
            x  Zr           2         0.249114   0.749023   0.000628   x 
            x  Zr           3         0.750246   0.999675   0.250519   x 
            x  Zr           4         0.999841   0.250078   0.750465   x 
            x  Zr           5         0.750072   0.250587   0.999490   x 
            x  Zr           6         0.249409   0.000338   0.749179   x 
            x  Zr           7         0.499921   0.000447   0.000038   x 
            x  Zr           8         0.250112   0.249361   0.500029   x 
            x  Zr           9         0.249627   0.500255   0.249290   x 
            x  Zr          10         0.500439   0.749005   0.748965   x 
            x  Sn           1         0.999244   0.750285   0.250496   x 
            x  Sn           2         0.750437   0.500488   0.749927   x 
            x  Sn           3         0.750898   0.750235   0.499682   x 
            x  Sn           4         0.999600   0.500373   0.999987   x 
            x  Sn           5         0.499723   0.249974   0.249882   x 
            x  Sn           6         0.998836   0.998634   0.498833   x 
            x  La           1         0.999797   0.000563   0.999934   x 
            x  La           2         0.749996   0.249873   0.500042   x 
            x  La           3         0.250428   0.499736   0.749610   x 
            x  La           4         0.499870   0.750066   0.249924   x 
            x  La           5         0.250851   0.749533   0.500060   x 
            x  La           6         0.749807   0.499871   0.250012   x 
            x  La           7         0.499899   0.249957   0.749994   x 
            x  La           8         0.000731   0.499371   0.500163   x 
            x  La           9         0.749475   0.750662   0.000146   x 
            x  La          10         0.250185   0.999678   0.249696   x 
            x  La          11         0.249727   0.249920   0.999541   x 
            x  La          12         0.749805   0.000323   0.750627   x 
            x  La          13         0.499973   0.999828   0.500361   x 
            x  La          14         0.000614   0.750272   0.750497   x 
            x  La          15         0.000095   0.249923   0.250002   x 
            x  La          16         0.499536   0.500348   0.999962   x 
            xxxxxxxxxxxxxxxxxxxxxxxxxxxxxxxxxxxxxxxxxxxxxxxxxxxxxxxxxxxx
 
 
                         No user defined ionic velocities
 
                           -------------------------------
                                   Details of Species
                           -------------------------------
 
                               Mass of species in AMU
                                    O   15.9994000
                                    Zr   91.2240000
                                    Sn  118.7100000
                                    La  138.9055000
 
                          Electric Quadrupole Moment (Barn)
                                    O   -0.0255800 Isotope 17
                                    Zr   -0.1760000 Isotope 91
                                    Sn    1.0000000 No Isotope Defined
                                    La    0.2000000 Isotope139
 
                          Files used for pseudopotentials:
                                    O 2|1.1|15|18|20|20:21(qc=7)
                                    Zr 3|2.1|7|8|9|40U:50:41:42
                                    Sn 3|2.2|7|8|9|50:51:42
                                    La 2|2.3|5|6|7|50U:60:51:52(qc=4.5)
 
                           -------------------------------
                              k-Points For BZ Sampling
                           -------------------------------
                       MP grid size for SCF calculation is  3  3  3
                            with an offset of   0.000  0.000  0.000
                       Number of kpoints used =            14
 
                           -------------------------------
                               Symmetry and Constraints
                           -------------------------------
 
                      Maximum deviation from symmetry =  0.00000         ANG
 
         There are no symmetry operations specified or generated for this cell
                      Number of ionic constraints     =           3
                      Point group of crystal =     1: C1, 1, 1
                      Space group of crystal =     1: P1, P 1
 
 
                         Centre of mass is constrained
             Set iprint > 1 for details of linear ionic constraints
 
                         Number of cell constraints= 0
                         Cell constraints are:  1 2 3 4 5 6
 
                         External pressure/stress (GPa)
                          0.00000   0.00000   0.00000
                                    0.00000   0.00000
                                              0.00000
  
+---------------- MEMORY AND SCRATCH DISK ESTIMATES PER PROCESS --------------+
|                                                     Memory          Disk    |
| Baseline code, static data and system overhead      322.0 MB         0.0 MB |
| BLAS internal memory storage                          0.0 MB         0.0 MB |
| Model and support data                             1319.7 MB         0.0 MB |
| Electronic energy minimisation requirements         380.7 MB         0.0 MB |
| Force calculation requirements                       24.1 MB         0.0 MB |
| Stress calculation requirements                      28.3 MB         0.0 MB |
|                                               ----------------------------- |
| Approx. total storage required per process         2022.5 MB         0.0 MB |
|                                                                             |
| Requirements will fluctuate during execution and may exceed these estimates |
+-----------------------------------------------------------------------------+
Calculating finite basis set correction with  3 cut-off energies.
Calculating total energy with cut-off of  806.342eV.
------------------------------------------------------------------------ <-- SCF
SCF loop      Energy           Fermi           Energy gain       Timer   <-- SCF
                               energy          per atom          (sec)   <-- SCF
------------------------------------------------------------------------ <-- SCF
Initial  -5.43867514E+004  0.00000000E+000                        76.09  <-- SCF
      1  -6.30164194E+004  7.63375368E+000   9.80644089E+001     216.59  <-- SCF
      2  -6.55938391E+004  7.10430665E+000   2.92888602E+001     309.72  <-- SCF
      3  -6.56722513E+004  6.78363395E+000   8.91048454E-001     415.36  <-- SCF
      4  -6.56683454E+004  7.73961808E+000  -4.43853521E-002     546.21  <-- SCF
      5  -6.55601057E+004  7.29016433E+000  -1.22999661E+000     674.06  <-- SCF
      6  -6.55617122E+004  7.17744756E+000   1.82554693E-002     832.85  <-- SCF
      7  -6.55614593E+004  7.26278121E+000  -2.87324689E-003     968.52  <-- SCF
      8  -6.55615185E+004  7.26326753E+000   6.72557925E-004    1141.57  <-- SCF
      9  -6.55615380E+004  7.26188283E+000   2.21600383E-004    1292.15  <-- SCF
     10  -6.55615394E+004  7.25804438E+000   1.57910582E-005    1434.72  <-- SCF
     11  -6.55615386E+004  7.25980919E+000  -9.15647238E-006    1577.91  <-- SCF
     12  -6.55615389E+004  7.25963577E+000   3.30297207E-006    1735.74  <-- SCF
     13  -6.55615389E+004  7.25908353E+000   3.52412621E-007    1871.68  <-- SCF
     14  -6.55615389E+004  7.25880449E+000  -2.91829569E-007    2006.64  <-- SCF
     15  -6.55615389E+004  7.25836061E+000  -7.50501616E-008    2151.93  <-- SCF
     16  -6.55615389E+004  7.25813792E+000  -3.59473569E-009    2276.99  <-- SCF
     17  -6.55615389E+004  7.25804605E+000   3.56464363E-010    2397.34  <-- SCF
     18  -6.55615389E+004  7.25799669E+000  -3.51120913E-010    2494.96  <-- SCF
------------------------------------------------------------------------ <-- SCF
 
Final energy, E             =  -65561.53890555     eV
Final free energy (E-TS)    =  -65561.53890555     eV
(energies not corrected for finite basis set)
 
NB est. 0K energy (E-0.5TS)      =  -65561.53890555     eV
 
Calculating total energy with cut-off of  811.342eV.
------------------------------------------------------------------------ <-- SCF
SCF loop      Energy           Fermi           Energy gain       Timer   <-- SCF
                               energy          per atom          (sec)   <-- SCF
------------------------------------------------------------------------ <-- SCF
Initial  -6.55615389E+004  0.00000000E+000                      2530.55  <-- SCF
      1  -6.55615414E+004  7.25788796E+000   2.78940937E-005    2640.94  <-- SCF
      2  -6.55615414E+004  7.25788795E+000   4.23538722E-010    2743.20  <-- SCF
      3  -6.55615414E+004  7.25791425E+000   1.65855064E-008    2858.62  <-- SCF
      4  -6.55615414E+004  7.25792700E+000  -2.23820247E-009    2967.05  <-- SCF
      5  -6.55615414E+004  7.25793816E+000  -1.66068802E-010    3055.96  <-- SCF
      6  -6.55615414E+004  7.25795219E+000  -6.42620172E-011    3143.43  <-- SCF
------------------------------------------------------------------------ <-- SCF
 
Final energy, E             =  -65561.54136144     eV
Final free energy (E-TS)    =  -65561.54136144     eV
(energies not corrected for finite basis set)
 
NB est. 0K energy (E-0.5TS)      =  -65561.54136144     eV
 
Calculating total energy with cut-off of  816.342eV.
------------------------------------------------------------------------ <-- SCF
SCF loop      Energy           Fermi           Energy gain       Timer   <-- SCF
                               energy          per atom          (sec)   <-- SCF
------------------------------------------------------------------------ <-- SCF
Initial  -6.55615414E+004  0.00000000E+000                      3179.06  <-- SCF
      1  -6.55615443E+004  7.25799396E+000   3.29893457E-005    3291.80  <-- SCF
      2  -6.55615443E+004  7.25799396E+000   2.11206893E-010    3385.89  <-- SCF
      3  -6.55615443E+004  7.25797391E+000   2.03025789E-008    3473.36  <-- SCF
      4  -6.55615443E+004  7.25797242E+000   6.16887242E-010    3560.61  <-- SCF
      5  -6.55615443E+004  7.25796579E+000  -1.12915536E-010    3647.87  <-- SCF
------------------------------------------------------------------------ <-- SCF
 
Final energy, E             =  -65561.54426634     eV
Final free energy (E-TS)    =  -65561.54426634     eV
(energies not corrected for finite basis set)
 
NB est. 0K energy (E-0.5TS)      =  -65561.54426634     eV
 
 For future reference: finite basis dEtot/dlog(Ecut) =      -0.437425eV
 Total energy corrected for finite basis set =  -65561.544265 eV
 
  =====================================================================
  +       Calculation of Nuclear Magnetic Resonance Parameters        +
  + ================================================================= +
 
  Starting Calculation of Electric Field Gradient Tensors         |<-- EFG
  +---------------- MEMORY AND SCRATCH DISK ESTIMATES PER PROCESS --------------+
  |                                                     Memory          Disk    |
  | Model and support data                             1317.5 MB         0.0 MB |
  | NMR EFG calculation requirements                    366.4 MB         0.0 MB |
  |                                               ----------------------------- |
  | Approx. total storage required per process         1683.9 MB         0.0 MB |
  |                                                                             |
  | Requirements will fluctuate during execution and may exceed these estimates |
  +-----------------------------------------------------------------------------+
  Total Time for EFG Tensors                     406.74 sec       |<-- EFG
 
  Starting Calculation of Chemical Shielding Tensors              |<-- NMR
  +---------------- MEMORY AND SCRATCH DISK ESTIMATES PER PROCESS --------------+
  |                                                     Memory          Disk    |
  | Model and support data                             1317.5 MB         0.0 MB |
  | NMR chemical shift calculation requirements         562.7 MB         0.0 MB |
  |                                               ----------------------------- |
  | Approx. total storage required per process         1880.1 MB         0.0 MB |
  |                                                                             |
  | Requirements will fluctuate during execution and may exceed these estimates |
  +-----------------------------------------------------------------------------+
  Starting k-point:   1 of   1                                    |<-- NMR
  Total Time for step 1 of 6:                   3318.21 sec       |<-- NMR
  Total Time for step 2 of 6:                   3318.55 sec       |<-- NMR
  Total Time for step 3 of 6:                   3311.41 sec       |<-- NMR
  Total Time for step 4 of 6:                   3317.69 sec       |<-- NMR
  Total Time for step 5 of 6:                   3310.64 sec       |<-- NMR
  Total Time for step 6 of 6:                   3316.15 sec       |<-- NMR
  Total Time for Chemical Shielding Tensors    29076.86 sec       |<-- NMR
 
  ========================================================================
  |           Chemical Shielding and Electric Field Gradient Tensors     |
  |----------------------------------------------------------------------|
  |     Nucleus                Shielding tensor             EFG Tensor   |
  |  Species       Ion    Iso(ppm)   Aniso(ppm)  Asym    Cq(MHz)    Eta  |
  |    O           1     -316.90      12.68      0.73   6.041E-02   0.79 |
  |    O           2     -316.80       7.99      0.94  -2.102E-02   0.79 |
  |    O           3     -319.08      -5.25      0.34  -7.690E-02   0.23 |
  |    O           4     -317.41      -8.20      0.73  -5.171E-02   0.65 |
  |    O           5     -316.42       8.35      0.42  -5.839E-02   0.60 |
  |    O           6     -317.46       8.76      0.96  -5.443E-02   0.31 |
  |    O           7     -316.20       7.55      0.38   3.081E-02   0.29 |
  |    O           8     -316.20       8.31      0.27   3.173E-02   0.93 |
  |    O           9      -85.61      88.81      0.15  -3.237E+00   0.13 |
  |    O          10     -164.43     157.70      0.82   1.074E+00   0.88 |
  |    O          11       -4.49      66.42      0.93   3.789E+00   0.90 |
  |    O          12       -5.07      66.60      0.78   3.845E+00   0.88 |
  |    O          13      -90.59      98.92      0.27  -3.141E+00   0.11 |
  |    O          14      -84.87      93.96      0.35  -3.114E+00   0.09 |
  |    O          15      -91.32      83.13      0.20  -3.212E+00   0.12 |
  |    O          16      -86.09      87.97      0.09  -3.187E+00   0.08 |
  |    O          17      -85.91      88.34      0.15  -3.110E+00   0.10 |
  |    O          18      -88.48      78.53      0.11  -3.260E+00   0.09 |
  |    O          19      -88.56      83.69      0.21  -3.258E+00   0.12 |
  |    O          20     -163.86     156.04      0.81   1.042E+00   0.91 |
  |    O          21      -10.94      57.64      0.70   3.877E+00   0.86 |
  |    O          22       -2.18      67.78      0.82   3.845E+00   0.88 |
  |    O          23     -164.16     151.57      0.77   1.038E+00   0.90 |
  |    O          24      -85.39      95.81      0.26  -3.162E+00   0.10 |
  |    O          25     -160.02     145.49      0.82   1.090E+00   0.73 |
  |    O          26      -13.10      61.17      0.21   3.949E+00   0.79 |
  |    O          27     -163.07     146.93      0.76   1.086E+00   0.78 |
  |    O          28      -91.68      96.28      0.20  -3.140E+00   0.12 |
  |    O          29      -84.56      86.77      0.11  -3.215E+00   0.09 |
  |    O          30      -86.97      92.13      0.24  -3.173E+00   0.10 |
  |    O          31     -161.68     149.25      0.78   1.050E+00   0.80 |
  |    O          32      -10.20      60.38      0.46   3.919E+00   0.83 |
  |    O          33      -93.15      93.81      0.20  -3.155E+00   0.11 |
  |    O          34      -92.56      87.66      0.14  -3.228E+00   0.13 |
  |    O          35     -162.80     149.49      0.77   1.026E+00   0.81 |
  |    O          36      -88.94      93.51      0.25  -3.219E+00   0.10 |
  |    O          37      -86.24      85.43      0.29  -3.216E+00   0.10 |
  |    O          38     -161.96     146.86      0.79   1.052E+00   0.80 |
  |    O          39     -162.88     148.98      0.80   1.076E+00   0.80 |
  |    O          40     -164.16     152.13      0.80   1.069E+00   0.80 |
  |    O          41      -87.56      82.79      0.29  -3.172E+00   0.10 |
  |    O          42     -164.91     155.83      0.87   1.073E+00   0.86 |
  |    O          43      -87.78      88.68      0.24  -3.240E+00   0.10 |
  |    O          44      -88.16      91.11      0.31  -3.127E+00   0.08 |
  |    O          45     -166.17     161.76      0.83   1.071E+00   0.92 |
  |    O          46     -162.87     144.74      0.83   1.035E+00   0.75 |
  |    O          47     -164.50     155.20      0.81   1.052E+00   0.88 |
  |    O          48      -87.40      83.97      0.11  -3.183E+00   0.11 |
  |    O          49     -164.43     154.75      0.85   1.060E+00   0.87 |
  |    O          50     -162.59     150.38      0.82   1.038E+00   0.81 |
  |    O          51     -161.10     145.89      0.77   1.082E+00   0.71 |
  |    O          52      -84.51      93.73      0.34  -3.146E+00   0.09 |
  |    O          53      -89.45      77.50      0.13  -3.275E+00   0.11 |
  |    O          54     -164.17     153.50      0.81   1.012E+00   0.92 |
  |    O          55      -89.70      82.98      0.13  -3.200E+00   0.12 |
  |    O          56      -90.80      92.78      0.19  -3.168E+00   0.12 |
  |    Zr          1     1627.38    -126.75      0.15  -3.800E+01   0.07 |
  |    Zr          2     1622.80    -122.85      0.13  -3.870E+01   0.06 |
  |    Zr          3     1612.82    -119.47      0.11  -3.709E+01   0.10 |
  |    Zr          4     1627.59    -126.91      0.07  -3.801E+01   0.12 |
  |    Zr          5     1626.79    -125.02      0.16  -3.782E+01   0.05 |
  |    Zr          6     1629.71    -123.06      0.07  -3.974E+01   0.04 |
  |    Zr          7     1627.99    -121.04      0.04  -4.001E+01   0.01 |
  |    Zr          8     1632.07    -124.86      0.08  -3.879E+01   0.05 |
  |    Zr          9     1627.21    -124.64      0.11  -3.785E+01   0.12 |
  |    Zr         10     1623.43    -122.50      0.00  -3.903E+01   0.15 |
  |    Sn          1     3256.42     -60.54      0.19   1.264E+02   0.16 |
  |    Sn          2     3258.41     -57.93      0.32   1.283E+02   0.19 |
  |    Sn          3     3254.86     -63.25      0.46   1.262E+02   0.10 |
  |    Sn          4     3258.02     -58.20      0.24   1.291E+02   0.16 |
  |    Sn          5     3245.87     -35.61      0.34   1.306E+02   0.12 |
  |    Sn          6     3249.07     -48.51      0.48   1.265E+02   0.11 |
  |    La          1     4752.81     862.01      0.05  -8.656E+01   0.08 |
  |    La          2     4657.50     655.11      0.01  -8.106E+01   0.04 |
  |    La          3     4750.42     869.04      0.05  -8.466E+01   0.07 |
  |    La          4     4752.80     860.97      0.03  -8.643E+01   0.07 |
  |    La          5     4702.93     751.99      0.05  -8.200E+01   0.11 |
  |    La          6     4610.59     525.00      0.07  -7.630E+01   0.09 |
  |    La          7     4752.32     867.40      0.03  -8.456E+01   0.04 |
  |    La          8     4661.95     614.59      0.01  -7.936E+01   0.02 |
  |    La          9     4654.79     619.30      0.01  -7.825E+01   0.02 |
  |    La         10     4654.59     669.07      0.10  -7.863E+01   0.13 |
  |    La         11     4701.75     772.87      0.05  -8.146E+01   0.06 |
  |    La         12     4704.21     753.02      0.03  -8.155E+01   0.09 |
  |    La         13     4706.38     771.11      0.04  -8.345E+01   0.05 |
  |    La         14     4610.75     512.72      0.08  -7.583E+01   0.07 |
  |    La         15     4710.16     778.00      0.09  -8.443E+01   0.11 |
  |    La         16     4706.44     772.05      0.04  -8.343E+01   0.06 |
  ========================================================================
 
 *********************** Forces ***********************
 *                                                    *
 *            Cartesian components (eV/A)             *
 * -------------------------------------------------- *
 *                   x            y            z      *
 *                                                    *
 * O         1      0.00295      0.00395     -0.00403 *
 * O         2      0.00134      0.00114      0.00412 *
 * O         3      0.01492     -0.00402      0.00209 *
 * O         4      0.00251      0.00349      0.00088 *
 * O         5     -0.00299      0.00024     -0.00143 *
 * O         6     -0.00649      0.00774      0.00168 *
 * O         7     -0.00778      0.00309     -0.00269 *
 * O         8     -0.00515     -0.00078      0.00234 *
 * O         9      0.00005      0.01540      0.01028 *
 * O        10     -0.01067      0.00491     -0.00352 *
 * O        11     -0.00482      0.00777      0.00012 *
 * O        12      0.01002      0.00391      0.00052 *
 * O        13     -0.01458      0.00375     -0.02347 *
 * O        14     -0.01372      0.00891      0.01198 *
 * O        15      0.01383     -0.00090     -0.01410 *
 * O        16     -0.02348     -0.00968     -0.03613 *
 * O        17     -0.01768     -0.02220     -0.00516 *
 * O        18     -0.01588      0.02221      0.00148 *
 * O        19      0.01138     -0.01622     -0.00323 *
 * O        20      0.00474      0.01125      0.01441 *
 * O        21      0.00579      0.00946     -0.00015 *
 * O        22      0.00449     -0.00466      0.00667 *
 * O        23      0.00093     -0.00796     -0.00196 *
 * O        24      0.01620     -0.00290     -0.01141 *
 * O        25      0.00894     -0.00193     -0.00716 *
 * O        26      0.00099      0.00166      0.00314 *
 * O        27     -0.00701     -0.00628     -0.00934 *
 * O        28      0.00008      0.01378     -0.00373 *
 * O        29      0.02083      0.02083      0.00515 *
 * O        30      0.00645     -0.01065     -0.00252 *
 * O        31      0.00550     -0.01110     -0.00447 *
 * O        32     -0.00067      0.00211     -0.00044 *
 * O        33      0.00656     -0.00543      0.01543 *
 * O        34     -0.00409      0.01793      0.01473 *
 * O        35     -0.00378     -0.00541     -0.01198 *
 * O        36      0.01575     -0.00567      0.01725 *
 * O        37     -0.01172      0.00797      0.00410 *
 * O        38     -0.00175     -0.01023     -0.00431 *
 * O        39      0.00568     -0.00969      0.01635 *
 * O        40      0.00817      0.00887      0.01482 *
 * O        41      0.00043     -0.00602     -0.01100 *
 * O        42     -0.02286     -0.00615     -0.00019 *
 * O        43     -0.02058     -0.03606     -0.00405 *
 * O        44     -0.00664      0.00960      0.00462 *
 * O        45      0.01134     -0.01444     -0.00913 *
 * O        46     -0.00184      0.00240      0.00573 *
 * O        47     -0.00890      0.01432     -0.01224 *
 * O        48      0.00502      0.01284     -0.00171 *
 * O        49      0.00544      0.02218      0.00432 *
 * O        50      0.00156     -0.00688      0.00021 *
 * O        51     -0.00571      0.00154      0.00639 *
 * O        52     -0.00230     -0.01175     -0.01047 *
 * O        53      0.02325     -0.01026      0.01049 *
 * O        54      0.00601      0.00634     -0.01042 *
 * O        55     -0.02411     -0.00278      0.01485 *
 * O        56     -0.00048      0.00673      0.00458 *
 * Zr        1      0.01543     -0.01576     -0.02882 *
 * Zr        2      0.00684      0.01462     -0.00784 *
 * Zr        3     -0.00286      0.01038     -0.00562 *
 * Zr        4     -0.01414     -0.00099     -0.00272 *
 * Zr        5     -0.00418     -0.00655      0.01371 *
 * Zr        6      0.00920     -0.01547      0.01185 *
 * Zr        7     -0.01421     -0.01405     -0.00659 *
 * Zr        8     -0.00706      0.00092     -0.01617 *
 * Zr        9     -0.00003     -0.00809      0.00577 *
 * Zr       10      0.00421      0.00278      0.00016 *
 * Sn        1     -0.00207     -0.00447      0.00105 *
 * Sn        2      0.00842      0.00159     -0.00548 *
 * Sn        3      0.00500     -0.00898      0.00419 *
 * Sn        4     -0.01763      0.00633      0.00345 *
 * Sn        5      0.00303     -0.00379      0.00012 *
 * Sn        6      0.00573      0.01350      0.01538 *
 * La        1      0.00040     -0.01912      0.00987 *
 * La        2      0.00434      0.00900      0.01065 *
 * La        3     -0.01616     -0.00214      0.00809 *
 * La        4      0.00739      0.00548      0.00115 *
 * La        5     -0.02661      0.01090     -0.01005 *
 * La        6     -0.00204      0.00345      0.00361 *
 * La        7      0.00918      0.00044      0.01267 *
 * La        8     -0.00704      0.01184      0.00395 *
 * La        9      0.00373     -0.00481     -0.00787 *
 * La       10      0.01097      0.00584     -0.00301 *
 * La       11      0.02609     -0.00900      0.01161 *
 * La       12      0.00266     -0.01177     -0.00673 *
 * La       13      0.00584      0.00402     -0.00654 *
 * La       14     -0.00996      0.00037     -0.00759 *
 * La       15      0.00474      0.00285      0.00923 *
 * La       16      0.01530     -0.00563      0.00019 *
 *                                                    *
 ******************************************************
 
 ***************** Stress Tensor *****************
 *                                               *
 *          Cartesian components (GPa)           *
 * --------------------------------------------- *
 *             x             y             z     *
 *                                               *
 *  x      0.035280     -0.003595      0.002099  *
 *  y     -0.003595      0.017341     -0.052600  *
 *  z      0.002099     -0.052600      0.029995  *
 *                                               *
 *  Pressure:   -0.0275                          *
 *                                               *
 *************************************************
 
 Pseudo atomic calculation performed for O 2s2 2p4
 
 Converged in 39 iterations to a total energy of -432.6554 eV
 
 
 Pseudo atomic calculation performed for Zr 4s2 4p6 4d2 5s2
 
 Converged in 38 iterations to a total energy of -1285.4931 eV
 
 
 Pseudo atomic calculation performed for Sn 4d10 5s2 5p2
 
 Converged in 48 iterations to a total energy of -2044.5414 eV
 
 
 Pseudo atomic calculation performed for La 5s2 5p6 5d1 6s2
 
 Converged in 34 iterations to a total energy of -968.0372 eV
 
Charge spilling parameter for spin component 1 = 0.23%
 
     Atomic Populations (Mulliken)
     -----------------------------
Species   Ion     s      p      d      f     Total  Charge (e)
==============================================================
  O        1     1.87   5.00   0.00   0.00   6.87    -0.87
  O        2     1.87   5.00   0.00   0.00   6.87    -0.87
  O        3     1.87   5.00   0.00   0.00   6.87    -0.87
  O        4     1.87   5.00   0.00   0.00   6.87    -0.87
  O        5     1.87   5.00   0.00   0.00   6.87    -0.87
  O        6     1.87   5.00   0.00   0.00   6.87    -0.87
  O        7     1.87   5.00   0.00   0.00   6.87    -0.87
  O        8     1.87   5.00   0.00   0.00   6.87    -0.87
  O        9     1.87   4.99   0.00   0.00   6.85    -0.85
  O       10     1.86   4.95   0.00   0.00   6.80    -0.80
  O       11     1.88   5.02   0.00   0.00   6.90    -0.90
  O       12     1.88   5.02   0.00   0.00   6.90    -0.90
  O       13     1.87   4.99   0.00   0.00   6.85    -0.85
  O       14     1.87   4.99   0.00   0.00   6.85    -0.85
  O       15     1.87   4.99   0.00   0.00   6.85    -0.85
  O       16     1.87   4.99   0.00   0.00   6.85    -0.85
  O       17     1.87   4.99   0.00   0.00   6.85    -0.85
  O       18     1.87   4.99   0.00   0.00   6.85    -0.85
  O       19     1.87   4.99   0.00   0.00   6.85    -0.85
  O       20     1.86   4.94   0.00   0.00   6.80    -0.80
  O       21     1.88   5.02   0.00   0.00   6.91    -0.91
  O       22     1.88   5.02   0.00   0.00   6.90    -0.90
  O       23     1.86   4.94   0.00   0.00   6.80    -0.80
  O       24     1.87   4.99   0.00   0.00   6.85    -0.85
  O       25     1.86   4.95   0.00   0.00   6.80    -0.80
  O       26     1.88   5.02   0.00   0.00   6.91    -0.91
  O       27     1.86   4.95   0.00   0.00   6.80    -0.80
  O       28     1.87   4.99   0.00   0.00   6.85    -0.85
  O       29     1.87   4.99   0.00   0.00   6.85    -0.85
  O       30     1.87   4.99   0.00   0.00   6.85    -0.85
  O       31     1.86   4.94   0.00   0.00   6.80    -0.80
  O       32     1.88   5.02   0.00   0.00   6.91    -0.91
  O       33     1.87   4.99   0.00   0.00   6.86    -0.86
  O       34     1.87   4.99   0.00   0.00   6.85    -0.85
  O       35     1.86   4.94   0.00   0.00   6.80    -0.80
  O       36     1.87   4.99   0.00   0.00   6.86    -0.86
  O       37     1.87   4.99   0.00   0.00   6.86    -0.86
  O       38     1.86   4.94   0.00   0.00   6.80    -0.80
  O       39     1.86   4.95   0.00   0.00   6.80    -0.80
  O       40     1.86   4.95   0.00   0.00   6.80    -0.80
  O       41     1.87   4.98   0.00   0.00   6.85    -0.85
  O       42     1.86   4.95   0.00   0.00   6.80    -0.80
  O       43     1.87   4.99   0.00   0.00   6.85    -0.85
  O       44     1.87   4.98   0.00   0.00   6.85    -0.85
  O       45     1.85   4.95   0.00   0.00   6.80    -0.80
  O       46     1.86   4.95   0.00   0.00   6.80    -0.80
  O       47     1.86   4.94   0.00   0.00   6.80    -0.80
  O       48     1.87   4.99   0.00   0.00   6.86    -0.86
  O       49     1.86   4.95   0.00   0.00   6.80    -0.80
  O       50     1.86   4.95   0.00   0.00   6.80    -0.80
  O       51     1.86   4.95   0.00   0.00   6.80    -0.80
  O       52     1.87   4.99   0.00   0.00   6.85    -0.85
  O       53     1.87   4.99   0.00   0.00   6.86    -0.86
  O       54     1.86   4.94   0.00   0.00   6.80    -0.80
  O       55     1.87   4.99   0.00   0.00   6.85    -0.85
  O       56     1.87   4.99   0.00   0.00   6.85    -0.85
  Zr       1     2.38   6.49   1.92   0.00  10.79     1.21
  Zr       2     2.37   6.48   1.93   0.00  10.77     1.23
  Zr       3     2.37   6.50   1.92   0.00  10.80     1.20
  Zr       4     2.38   6.49   1.92   0.00  10.79     1.21
  Zr       5     2.37   6.49   1.92   0.00  10.78     1.22
  Zr       6     2.37   6.47   1.93   0.00  10.76     1.24
  Zr       7     2.37   6.47   1.93   0.00  10.77     1.23
  Zr       8     2.37   6.48   1.93   0.00  10.77     1.23
  Zr       9     2.37   6.49   1.92   0.00  10.78     1.22
  Zr      10     2.37   6.48   1.93   0.00  10.78     1.22
  Sn       1     1.05   1.32  10.00   0.00  12.37     1.63
  Sn       2     1.05   1.32  10.00   0.00  12.37     1.63
  Sn       3     1.05   1.32  10.00   0.00  12.37     1.63
  Sn       4     1.05   1.32  10.00   0.00  12.37     1.63
  Sn       5     1.05   1.31  10.00   0.00  12.36     1.64
  Sn       6     1.05   1.32  10.00   0.00  12.37     1.63
  La       1     2.04   6.15   1.19   0.00   9.38     1.62
  La       2     2.07   6.18   1.19   0.00   9.44     1.56
  La       3     2.04   6.14   1.19   0.00   9.38     1.62
  La       4     2.04   6.15   1.19   0.00   9.38     1.62
  La       5     2.07   6.16   1.19   0.00   9.42     1.58
  La       6     2.10   6.19   1.19   0.00   9.49     1.51
  La       7     2.02   6.15   1.19   0.00   9.36     1.64
  La       8     2.08   6.19   1.19   0.00   9.46     1.54
  La       9     2.09   6.18   1.19   0.00   9.46     1.54
  La      10     2.07   6.17   1.19   0.00   9.44     1.56
  La      11     2.05   6.16   1.19   0.00   9.39     1.61
  La      12     2.07   6.16   1.19   0.00   9.43     1.57
  La      13     2.04   6.16   1.19   0.00   9.39     1.61
  La      14     2.09   6.20   1.19   0.00   9.48     1.52
  La      15     2.06   6.16   1.19   0.00   9.42     1.58
  La      16     2.04   6.16   1.19   0.00   9.40     1.60
==============================================================
 
            Bond              Population      Length (A)
============================================================
         O 9  -- Sn 5              0.35        2.09859
         O 36 -- Sn 6              0.35        2.10072
         O 19 -- Sn 2              0.35        2.10080
         O 43 -- Sn 4              0.35        2.10092
         O 29 -- Sn 4              0.35        2.10241
         O 53 -- Sn 1              0.35        2.10296
         O 37 -- Sn 2              0.35        2.10340
         O 52 -- Sn 5              0.34        2.10374
         O 24 -- Sn 5              0.34        2.10464
         O 15 -- Sn 3              0.34        2.10545
         O 14 -- Sn 5              0.34        2.10602
         O 34 -- Sn 4              0.34        2.10612
         O 56 -- Sn 2              0.34        2.10620
         O 48 -- Sn 3              0.34        2.10628
         O 18 -- Sn 1              0.35        2.10639
         O 16 -- Sn 6              0.35        2.10653
         O 55 -- Sn 1              0.34        2.10667
         O 45 -- Zr 10             0.42        2.10682
         O 26 -- Sn 6              0.34        2.10730
         O 33 -- Sn 3              0.34        2.10741
         O 30 -- Sn 5              0.34        2.10769
         O 13 -- Sn 4              0.34        2.10795
         O 32 -- Sn 3              0.34        2.10807
         O 28 -- Sn 2              0.34        2.10849
         O 44 -- Sn 5              0.34        2.11012
         O 32 -- Sn 6              0.34        2.11053
         O 26 -- Sn 1              0.33        2.11085
         O 17 -- Sn 6              0.34        2.11160
         O 41 -- Sn 6              0.34        2.11203
         O 21 -- Sn 3              0.34        2.11258
         O 43 -- Zr 2              0.45        2.11273
         O 10 -- Zr 8              0.42        2.11349
         O 21 -- Sn 1              0.34        2.11373
         O 42 -- Zr 9              0.41        2.11398
         O 45 -- Zr 1              0.42        2.11439
         O 42 -- Zr 2              0.41        2.11460
         O 13 -- Zr 9              0.45        2.11475
         O 49 -- Zr 4              0.42        2.11479
         O 10 -- Zr 6              0.42        2.11503
         O 24 -- Zr 8              0.45        2.11592
         O 22 -- Sn 2              0.33        2.11604
         O 36 -- Zr 3              0.44        2.11604
         O 47 -- Zr 4              0.43        2.11614
         O 16 -- Zr 6              0.46        2.11633
         O 20 -- Zr 5              0.43        2.11670
         O 9  -- Zr 7              0.45        2.11713
         O 47 -- Zr 6              0.42        2.11731
         O 22 -- Sn 4              0.33        2.11735
         O 12 -- Sn 4              0.33        2.11736
         O 28 -- Zr 5              0.45        2.11739
         O 23 -- Zr 7              0.43        2.11747
         O 40 -- Zr 3              0.43        2.11755
         O 14 -- Zr 5              0.45        2.11805
         O 33 -- Zr 3              0.44        2.11818
         O 39 -- Zr 4              0.42        2.11819
         O 54 -- Zr 1              0.43        2.11820
         O 20 -- Zr 7              0.42        2.11844
         O 52 -- Zr 1              0.45        2.11856
         O 49 -- Zr 5              0.42        2.11896
         O 19 -- Zr 10             0.45        2.11929
         O 34 -- Zr 4              0.45        2.11949
         O 55 -- Zr 2              0.45        2.11972
         O 27 -- Zr 7              0.44        2.11984
         O 31 -- Zr 6              0.43        2.11984
         O 25 -- Zr 9              0.42        2.11985
         O 29 -- Zr 5              0.45        2.11987
         O 11 -- Sn 2              0.33        2.11999
         O 30 -- Zr 9              0.46        2.12008
         O 12 -- Sn 1              0.33        2.12012
         O 40 -- Zr 7              0.42        2.12018
         O 51 -- Zr 6              0.43        2.12031
         O 17 -- Zr 8              0.45        2.12044
         O 51 -- Zr 2              0.43        2.12054
         O 38 -- Zr 7              0.43        2.12055
         O 15 -- Zr 10             0.45        2.12056
         O 56 -- Zr 1              0.45        2.12078
         O 39 -- Zr 8              0.43        2.12110
         O 11 -- Sn 3              0.34        2.12121
         O 25 -- Zr 8              0.42        2.12137
         O 44 -- Zr 3              0.46        2.12153
         O 27 -- Zr 10             0.43        2.12176
         O 50 -- Zr 1              0.43        2.12232
         O 31 -- Zr 10             0.43        2.12247
         O 53 -- Zr 3              0.44        2.12248
         O 37 -- Zr 4              0.44        2.12309
         O 35 -- Zr 2              0.44        2.12349
         O 54 -- Zr 8              0.43        2.12366
         O 23 -- Zr 6              0.43        2.12378
         O 38 -- Zr 2              0.43        2.12432
         O 35 -- Zr 10             0.44        2.12443
         O 48 -- Zr 1              0.45        2.12446
         O 46 -- Zr 3              0.43        2.12462
         O 50 -- Zr 9              0.43        2.12535
         O 18 -- Zr 9              0.45        2.12538
         O 46 -- Zr 5              0.43        2.12738
         O 41 -- Zr 4              0.45        2.12792
         O 6  -- La 1              0.18        2.35774
         O 8  -- La 13             0.18        2.35901
         O 4  -- La 4              0.18        2.35914
         O 4  -- La 16             0.17        2.35918
         O 8  -- La 4              0.19        2.35942
         O 5  -- La 15             0.17        2.35978
         O 7  -- La 7              0.19        2.35981
         O 3  -- La 3              0.17        2.35994
         O 2  -- La 7              0.17        2.36009
         O 2  -- La 13             0.18        2.36013
         O 7  -- La 16             0.19        2.36018
         O 7  -- La 11             0.18        2.36055
         O 1  -- La 15             0.19        2.36058
         O 3  -- La 5              0.17        2.36077
         O 1  -- La 1              0.19        2.36079
         O 7  -- La 3              0.19        2.36091
         O 5  -- La 2              0.16        2.36098
         O 1  -- La 11             0.16        2.36100
         O 6  -- La 12             0.17        2.36111
         O 2  -- La 2              0.18        2.36139
         O 8  -- La 10             0.17        2.36184
         O 1  -- La 10             0.17        2.36199
         O 8  -- La 5              0.18        2.36201
         O 2  -- La 12             0.18        2.36262
         O 6  -- La 9              0.17        2.36292
         O 3  -- La 8              0.18        2.36355
         O 6  -- La 14             0.17        2.36381
         O 5  -- La 8              0.17        2.36396
         O 4  -- La 6              0.17        2.36407
         O 4  -- La 9              0.17        2.36427
         O 3  -- La 14             0.17        2.36433
         O 5  -- La 6              0.16        2.36476
         O 38 -- La 10             0.13        2.65654
         O 49 -- La 12             0.13        2.65774
         O 50 -- La 5              0.13        2.65910
         O 47 -- La 11             0.12        2.66003
         O 42 -- La 16             0.12        2.66065
         O 45 -- La 5              0.13        2.66258
         O 51 -- La 14             0.13        2.66428
         O 45 -- La 3              0.12        2.66481
         O 10 -- La 13             0.13        2.66513
         O 54 -- La 7              0.13        2.66547
         O 23 -- La 11             0.12        2.66553
         O 40 -- La 9              0.13        2.66614
         O 35 -- La 16             0.13        2.66636
         O 54 -- La 3              0.12        2.66645
         O 21 -- La 6              0.24        2.66691
         O 46 -- La 15             0.14        2.66701
         O 53 -- La 9              0.18        2.66716
         O 46 -- La 1              0.13        2.66809
         O 20 -- La 7              0.13        2.66813
         O 11 -- La 14             0.24        2.66864
         O 22 -- La 14             0.24        2.66921
         O 12 -- La 6              0.25        2.66930
         O 20 -- La 12             0.12        2.66941
         O 39 -- La 8              0.14        2.66950
         O 39 -- La 3              0.12        2.66992
         O 49 -- La 1              0.13        2.67027
         O 42 -- La 4              0.13        2.67041
         O 31 -- La 5              0.13        2.67063
         O 31 -- La 13             0.13        2.67082
         O 36 -- La 2              0.18        2.67142
         O 48 -- La 6              0.19        2.67186
         O 29 -- La 6              0.19        2.67197
         O 10 -- La 7              0.12        2.67277
         O 50 -- La 4              0.14        2.67279
         O 25 -- La 15             0.14        2.67281
         O 25 -- La 8              0.13        2.67286
         O 55 -- La 10             0.17        2.67290
         O 43 -- La 14             0.18        2.67323
         O 32 -- La 14             0.23        2.67345
         O 27 -- La 12             0.13        2.67415
         O 35 -- La 3              0.13        2.67431
         O 26 -- La 10             0.23        2.67477
         O 22 -- La 9              0.24        2.67501
         O 11 -- La 8              0.25        2.67502
         O 47 -- La 1              0.14        2.67542
         O 27 -- La 9              0.13        2.67563
         O 12 -- La 9              0.24        2.67565
         O 34 -- La 11             0.17        2.67584
         O 33 -- La 13             0.17        2.67617
         O 40 -- La 4              0.14        2.67650
         O 56 -- La 2              0.19        2.67687
         O 23 -- La 7              0.13        2.67747
         O 19 -- La 9              0.18        2.67751
         O 17 -- La 10             0.18        2.67763
         O 24 -- La 10             0.17        2.67767
         O 44 -- La 2              0.19        2.67869
         O 13 -- La 11             0.16        2.67894
         O 30 -- La 11             0.17        2.67910
         O 21 -- La 8              0.24        2.67995
         O 18 -- La 8              0.19        2.68018
         O 37 -- La 2              0.18        2.68042
         O 41 -- La 2              0.19        2.68052
         O 36 -- La 15             0.18        2.68058
         O 37 -- La 8              0.19        2.68068
         O 32 -- La 12             0.23        2.68080
         O 33 -- La 4              0.18        2.68133
         O 18 -- La 5              0.18        2.68143
         O 28 -- La 16             0.18        2.68147
         O 14 -- La 6              0.18        2.68179
         O 15 -- La 13             0.17        2.68225
         O 16 -- La 14             0.18        2.68253
         O 30 -- La 16             0.18        2.68265
         O 9  -- La 10             0.17        2.68286
         O 15 -- La 12             0.18        2.68298
         O 44 -- La 13             0.18        2.68334
         O 26 -- La 5              0.24        2.68365
         O 41 -- La 12             0.19        2.68386
         O 53 -- La 1              0.18        2.68453
         O 28 -- La 7              0.17        2.68492
         O 52 -- La 6              0.18        2.68536
         O 34 -- La 3              0.18        2.68569
         O 13 -- La 15             0.19        2.68604
         O 9  -- La 11             0.17        2.68626
         O 38 -- La 4              0.13        2.68679
         O 19 -- La 16             0.17        2.68696
         O 56 -- La 7              0.17        2.68765
         O 52 -- La 2              0.18        2.68829
         O 51 -- La 1              0.13        2.69026
         O 14 -- La 16             0.18        2.69036
         O 24 -- La 13             0.17        2.69070
         O 29 -- La 15             0.18        2.69194
         O 43 -- La 3              0.17        2.69205
         O 55 -- La 1              0.18        2.69208
         O 17 -- La 15             0.18        2.69214
         O 16 -- La 5              0.18        2.69248
         O 48 -- La 4              0.18        2.69343
         O 13 -- O 34             -0.06        2.79401
         O 36 -- O 41             -0.06        2.79563
         O 26 -- O 55             -0.06        2.79568
         O 21 -- O 48             -0.06        2.79569
         O 15 -- O 33             -0.06        2.79640
         O 37 -- O 56             -0.06        2.79721
         O 12 -- O 29             -0.06        2.79744
         O 19 -- O 28             -0.06        2.79783
         O 12 -- O 53             -0.06        2.79818
         O 9  -- O 24             -0.06        2.79821
         O 17 -- O 26             -0.06        2.79829
         O 9  -- O 30             -0.06        2.79866
         O 11 -- O 32             -0.05        2.79896
         O 22 -- O 43             -0.06        2.79916
         O 18 -- O 26             -0.06        2.79954
         O 15 -- O 32             -0.06        2.80024
         O 34 -- O 43             -0.06        2.80034
         O 19 -- O 22             -0.06        2.80101
         O 16 -- O 32             -0.06        2.80190
         O 18 -- O 21             -0.06        2.80232
         O 53 -- O 55             -0.06        2.80323
         O 16 -- O 26             -0.06        2.80475
         O 28 -- O 56             -0.06        2.80513
         O 44 -- O 52             -0.06        2.80568
         O 23 -- O 47             -0.04        2.80608
         O 12 -- O 21             -0.05        2.80626
         O 14 -- O 52             -0.06        2.80766
         O 32 -- O 41             -0.06        2.80768
         O 33 -- O 48             -0.06        2.80794
         O 24 -- O 44             -0.06        2.80804
         O 11 -- O 22             -0.05        2.80838
         O 45 -- O 50             -0.04        2.80854
         O 35 -- O 42             -0.04        2.80881
         O 13 -- O 29             -0.06        2.80884
         O 11 -- O 37             -0.05        2.80947
         O 14 -- O 30             -0.06        2.80967
         O 17 -- O 36             -0.06        2.80982
         O 11 -- O 21             -0.05        2.81050
         O 20 -- O 49             -0.03        2.81089
         O 12 -- O 22             -0.05        2.81089
         O 45 -- O 54             -0.03        2.81091
         O 10 -- O 54             -0.03        2.81094
         O 10 -- O 31             -0.03        2.81114
         O 35 -- O 45             -0.03        2.81199
         O 31 -- O 45             -0.03        2.81280
         O 38 -- O 55             -0.03        2.81397
         O 42 -- O 50             -0.03        2.81451
         O 20 -- O 23             -0.03        2.81563
         O 34 -- O 47             -0.03        2.81578
         O 9  -- O 38             -0.03        2.81623
         O 40 -- O 53             -0.03        2.81689
         O 47 -- O 49             -0.03        2.81710
         O 30 -- O 42             -0.03        2.81759
         O 39 -- O 54             -0.03        2.81768
         O 43 -- O 51             -0.03        2.81830
         O 46 -- O 49             -0.03        2.81839
         O 36 -- O 46             -0.03        2.81871
         O 41 -- O 49             -0.03        2.81882
         O 10 -- O 23             -0.03        2.81897
         O 9  -- O 23             -0.03        2.81926
         O 27 -- O 40             -0.03        2.81964
         O 10 -- O 24             -0.03        2.82056
         O 20 -- O 28             -0.03        2.82060
         O 34 -- O 39             -0.03        2.82073
         O 20 -- O 27             -0.03        2.82099
         O 19 -- O 27             -0.03        2.82119
         O 15 -- O 27             -0.03        2.82153
         O 25 -- O 39             -0.03        2.82175
         O 54 -- O 56             -0.03        2.82182
         O 33 -- O 40             -0.03        2.82341
         O 37 -- O 39             -0.03        2.82347
         O 38 -- O 42             -0.03        2.82413
         O 17 -- O 24             -0.03        2.82439
         O 36 -- O 44             -0.03        2.82440
         O 13 -- O 25             -0.03        2.82445
         O 13 -- O 30             -0.03        2.82446
         O 18 -- O 50             -0.03        2.82520
         O 33 -- O 44             -0.03        2.82633
         O 38 -- O 40             -0.03        2.82639
         O 47 -- O 51             -0.03        2.82663
         O 14 -- O 29             -0.03        2.82668
         O 16 -- O 51             -0.03        2.82706
         O 46 -- O 53             -0.03        2.82729
         O 48 -- O 52             -0.03        2.82742
         O 19 -- O 35             -0.03        2.82747
         O 29 -- O 46             -0.03        2.82804
         O 52 -- O 56             -0.03        2.82847
         O 15 -- O 31             -0.03        2.82898
         O 14 -- O 28             -0.03        2.82917
         O 18 -- O 25             -0.03        2.82965
         O 35 -- O 43             -0.03        2.82986
         O 16 -- O 31             -0.03        2.83114
         O 48 -- O 50             -0.03        2.83270
         O 17 -- O 25             -0.03        2.83285
         O 37 -- O 41             -0.03        2.83562
         O 51 -- O 55             -0.03        2.83583
============================================================
 

Writing analysis data to 022.castep_bin

Writing model to 022.check
 
 A BibTeX formatted list of references used in this run has been written to 
 022.bib
 
Initialisation time =     54.50 s
Calculation time    =  33553.64 s
Finalisation time   =     30.63 s
Total time          =  33638.78 s
Peak Memory Use     = 2839940 kB
  
Overall parallel efficiency rating: Good (78%)                                  
  
Data was distributed by:-
G-vector (4-way); efficiency rating: Good (78%)                                 
k-point (14-way); efficiency rating: Ideal (100%)                               
