 +-------------------------------------------------+
 |                                                 |
 |      CCC   AA    SSS  TTTTT  EEEEE  PPPP        |
 |     C     A  A  S       T    E      P   P       |
 |     C     AAAA   SS     T    EEE    PPPP        |
 |     C     A  A     S    T    E      P           |
 |      CCC  A  A  SSS     T    EEEEE  P           |
 |                                                 |
 +-------------------------------------------------+
 |                                                 |
 | Welcome to Academic Release CASTEP version 16.11|          
 | Ab Initio Total Energy Program                  |
 |                                                 |
 | Authors:                                        |
 | M. Segall, M. Probert, C. Pickard, P. Hasnip,   |
 | S. Clark, K. Refson, J. R. Yates, M. Payne      |
 |                                                 |
 | Contributors:                                   |
 | P. Lindan, P. Haynes, J. White, V. Milman,      |
 | N. Govind, M. Gibson, P. Tulip, V. Cocula,      |
 | B. Montanari, D. Quigley, M. Glover,            |
 | L. Bernasconi, A. Perlov, M. Plummer,           |
 | E. McNellis, J. Meyer, J. Gale, D. Jochym       |
 | J. Aarons, B. Walker, R. Gillen, D. Jones       |
 | T. Green, I. J. Bush, C. J. Armstrong,          |
 | E. J. Higgins, E. L. Brown, M. S. McFly         |
 |                                                 |
 | Copyright (c) 2000 - 2015                       |
 |                                                 |
 |     Distributed under the terms of an           |
 |     Agreement between the United Kingdom        |
 |     Car-Parrinello (UKCP) Consortium,           |
 |     Daresbury Laboratory and Accelrys, Inc.     |
 |                                                 |
 | Please cite                                     |
 |                                                 |
 |     "First principles methods using CASTEP"     |
 |                                                 |
 |         Zeitschrift fuer Kristallographie       |
 |           220(5-6) pp. 567-570 (2005)           |
 |                                                 |
 | S. J. Clark, M. D. Segall, C. J. Pickard,       |
 | P. J. Hasnip, M. J. Probert, K. Refson,         |
 | M. C. Payne                                     |
 |                                                 |
 |       in all publications arising from          |
 |              your use of CASTEP                 |
 |                                                 |
 +-------------------------------------------------+
 
 
 Compiled for linux_x86_64_ifort16 on Sat, 23 Jul 2016 23:44:54 +0100
 from code version 
 203e84763863+ Castep161_branch Fri, 04 Mar 2016 19:21:07 +0000
 Compiler: Intel Fortran 16.0.3.210; Optimisation: fast
 MATHLIBS: Intel MKL(11.3.3) (LAPACK version 3.6.0)
 FFT Lib : mkl
 Fundamental constants values: CODATA 2010
 
 Run started: Wed, 14 Mar 2018 11:26:11 +0000
 +-------------------------------------------------+
 |                                                 |
 |           N   N    M   M    RRRR                |
 |           NN  N    MM MM    R   R               |
 |           N N N    M M M    RRRR                |
 |           N  NN    M   M    R  R                |
 |           N   N    M   M    R   R               |
 |                                                 |
 +-------------------------------------------------+
 |                                                 |
 | Welcome to Materials Studio CASTEP-NMR          |
 |                                                 |
 | Authors:                                        |
 | J.R. Yates, C.J. Pickard, F. Mauri              |
 |                                                 |
 | Contributors:                                   |
 | T.F.G. Green, S.A. Joyce                        |
 |                                                 |
 | Copyright (c) 2004 - 2015                       |
 |                                                 |
 | Please cite the appropriate publications in all |
 | work arising from your use of CASTEP NMR.       |
 |                                                 |
 | For NMR Shielding Tensors cite:                 |
 |    "All-electron magnetic response with         |
 |    pseudopotentials: NMR chemical shifts",      |
 |    C. J. Pickard, F. Mauri;                     |
 |    Physical Review B63 245101 (2001), and       |
 |                                                 |
 |    "Calculation of NMR Chemical Shifts          |
 |    for extended systems using                   |
 |    Ultrasoft Pseudopotentials",                 |
 |    J. R. Yates, C. J. Pickard and F. Mauri      |
 |    Physical Review B76 024401 (2007)            |
 |                                                 |
 | For Electric Field Gradients cite:              |
 |   "Accurate First Principles Prediction of 17O  |
 |    NMR Parameters in SiO2: Assignment of the    |
 |    Zeolite Ferrierite Spectrum"                 |
 |    M. Profeta, F. Mauri and C. J. Pickard       |
 |    J. Amer. Chem. Soc. 125 541 (2003)           |
 |                                                 |
 | For Spin-Spin (J) Couplings cite:               |
 |   "A first principles theory of NMR J-coupling  |
 |   in solid-state systems"                       |
 |   S.A. Joyce, J.R. Yates, C.J. Pickard, F. Mauri|
 |   J. Chem. Phys. 127 204107 (2007)              |
 |                                                 |
 |   "Relativistic NMR J-coupling with ultrasoft   |
 |   pseudopotentials and the zeroth-order regular |
 |   approximation"                                |
 |   T.F.G. Green and J.R. Yates                   |
 |   J. Chem. Phys. 140 234106 (2014)              |
 |                                                 |
 +-------------------------------------------------+
 
 
 Atomic calculation performed for O: 1s2 2s2 2p4
 
 Converged in 44 iterations to an ae energy of -2040.855 eV
 
 
 Atomic calculation performed for O: 1s2 2s2 2p4
 
 Exceeded max iterations: converged to 0.000000062 eV
 
   ============================================================                
   | Pseudopotential Report - Date of generation 14-03-2018   |                
   ------------------------------------------------------------                
   | Element: O Ionic charge:  6.00 Level of theory: PBE      |                
   | Atomic Solver: ZORA (scalar)                             |                
   |                                                          |                
   |               Reference Electronic Structure             |                
   |         Orbital         Occupation         Energy        |                
   |            2s              2.000           -0.881        |                
   |            2p              4.000           -0.332        |                
   |                                                          |                
   |                 Pseudopotential Definition               |                
   |        Beta     l      e      Rc     scheme   norm       |                
   |          1      0   -0.881   1.100     qc      0         |                
   |          2      0    0.250   1.100     qc      0         |                
   |          3      1   -0.332   1.100     qc      0         |                
   |          4      1    0.250   1.100     qc      0         |                
   |         loc     2    0.000   1.100     pn      0         |                
   |                                                          |                
   | Augmentation charge Rinner = 0.769                       |                
   | Partial core correction Rc = 0.769                       |                
   ------------------------------------------------------------                
   | "2|1.1|15|18|20|20:21(qc=7)"                             |                
   ------------------------------------------------------------                
   |      Author: Chris J. Pickard, Cambridge University      |                
   ============================================================                
 
 Atomic calculation performed for Zr: 1s2 2s2 2p6 3s2 3p6 3d10 4s2 4p6 4d2 5s2
 
 Converged in 53 iterations to an ae energy of -97719.888 eV
 
 
 Atomic calculation performed for Zr: 1s2 2s2 2p6 3s2 3p6 3d10 4s2 4p6 4d2 5s2
 
 Exceeded max iterations: converged to 0.000000970 eV
 
 Warning: ion_atom_descreen_psp: negative charge density encountered
   ============================================================                
   | Pseudopotential Report - Date of generation 14-03-2018   |                
   ------------------------------------------------------------                
   | Element: Zr Ionic charge: 12.00 Level of theory: PBE     |                
   | Atomic Solver: ZORA (scalar)                             |                
   |                                                          |                
   |               Reference Electronic Structure             |                
   |         Orbital         Occupation         Energy        |                
   |            4s              2.000           -2.003        |                
   |            4p              6.000           -1.193        |                
   |            5s              2.000           -0.163        |                
   |            4d              2.000           -0.132        |                
   |                                                          |                
   |                 Pseudopotential Definition               |                
   |        Beta     l      e      Rc     scheme   norm       |                
   |          1      0   -2.003   2.105     qc      0         |                
   |          2      0   -0.163   2.105     qc      0         |                
   |          3      0    0.250   2.105     qc      0         |                
   |          4      1   -1.193   2.105     qc      0         |                
   |          5      1    0.250   2.105     qc      0         |                
   |          6      2   -0.132   2.105     qc      0         |                
   |          7      2    0.250   2.105     qc      0         |                
   |         loc     3    0.000   2.105     pn      0         |                
   |                                                          |                
   | Augmentation charge Rinner = 1.471                       |                
   | Partial core correction Rc = 1.471                       |                
   ------------------------------------------------------------                
   | "3|2.1|7|8|9|40U:50:41:42"                               |                
   ------------------------------------------------------------                
   |      Author: Chris J. Pickard, Cambridge University      |                
   ============================================================                
 
 Atomic calculation performed for Sn:
 1s2 2s2 2p6 3s2 3p6 3d10 4s2 4p6 4d10 5s2 5p2
 
 Converged in 58 iterations to an ae energy of -167539.320 eV
 
 
 Atomic calculation performed for Sn:
 1s2 2s2 2p6 3s2 3p6 3d10 4s2 4p6 4d10 5s2 5p2
 
 Exceeded max iterations: converged to 0.000001154 eV
 
   ============================================================                
   | Pseudopotential Report - Date of generation 14-03-2018   |                
   ------------------------------------------------------------                
   | Element: Sn Ionic charge: 14.00 Level of theory: PBE     |                
   | Atomic Solver: ZORA (scalar)                             |                
   |                                                          |                
   |               Reference Electronic Structure             |                
   |         Orbital         Occupation         Energy        |                
   |            4d             10.000           -0.950        |                
   |            5s              2.000           -0.388        |                
   |            5p              2.000           -0.136        |                
   |                                                          |                
   |                 Pseudopotential Definition               |                
   |        Beta     l      e      Rc     scheme   norm       |                
   |          1      0   -0.388   2.199     qc      0         |                
   |          2      0    0.250   2.199     qc      0         |                
   |          3      1   -0.136   2.199     qc      0         |                
   |          4      1    0.250   2.199     qc      0         |                
   |          5      2   -0.950   2.199     qc      0         |                
   |          6      2    0.250   2.199     qc      0         |                
   |         loc     3    0.000   2.199     pn      0         |                
   |                                                          |                
   | Augmentation charge Rinner = 1.537                       |                
   | Partial core correction Rc = 1.537                       |                
   ------------------------------------------------------------                
   | "3|2.2|7|8|9|50:51:42"                                   |                
   ------------------------------------------------------------                
   |      Author: Chris J. Pickard, Cambridge University      |                
   ============================================================                
 
 Atomic calculation performed for La:
 1s2 2s2 2p6 3s2 3p6 3d10 4s2 4p6 4d10 5s2 5p6 5d1 6s2
 
 Converged in 56 iterations to an ae energy of -230121.495 eV
 
 
 Atomic calculation performed for La:
 1s2 2s2 2p6 3s2 3p6 3d10 4s2 4p6 4d10 5s2 5p6 5d1 6s2
 
 Exceeded max iterations: converged to 0.000000907 eV
 
 Warning: ion_atom_descreen_psp: negative charge density encountered
   ============================================================                
   | Pseudopotential Report - Date of generation 14-03-2018   |                
   ------------------------------------------------------------                
   | Element: La Ionic charge: 11.00 Level of theory: PBE     |                
   | Atomic Solver: ZORA (scalar)                             |                
   |                                                          |                
   |               Reference Electronic Structure             |                
   |         Orbital         Occupation         Energy        |                
   |            5s              2.000           -1.430        |                
   |            5p              6.000           -0.823        |                
   |            6s              2.000           -0.135        |                
   |            5d              1.000           -0.114        |                
   |                                                          |                
   |                 Pseudopotential Definition               |                
   |        Beta     l      e      Rc     scheme   norm       |                
   |          1      0   -1.430   2.298     qc      0         |                
   |          2      0   -0.135   2.298     qc      0         |                
   |          3      0    0.250   2.298     qc      0         |                
   |          4      1   -0.823   2.298     qc      0         |                
   |          5      1    0.250   2.298     qc      0         |                
   |          6      2   -0.114   2.298     qc      0         |                
   |          7      2    0.250   2.298     qc      0         |                
   |         loc     2    0.000   2.298     pn      0         |                
   |                                                          |                
   | Augmentation charge Rinner = 1.606                       |                
   | Partial core correction Rc = 1.606                       |                
   ------------------------------------------------------------                
   | "2|2.3|5|6|7|50U:60:51:52(qc=4.5)"                       |                
   ------------------------------------------------------------                
   |      Author: Chris J. Pickard, Cambridge University      |                
   ============================================================                
 
 Pseudo atomic calculation performed for O 2s2 2p4
 
 Converged in 39 iterations to a total energy of -432.6554 eV
 
 
 Pseudo atomic calculation performed for Zr 4s2 4p6 4d2 5s2
 
 Converged in 38 iterations to a total energy of -1285.4931 eV
 
 
 Pseudo atomic calculation performed for Sn 4d10 5s2 5p2
 
 Converged in 48 iterations to a total energy of -2044.5414 eV
 
 
 Pseudo atomic calculation performed for La 5s2 5p6 5d1 6s2
 
 Converged in 34 iterations to a total energy of -968.0372 eV
 
 Calculation parallelised over 56 processes.
 Data is distributed by G-vector(4-way) and k-point(14-way)

 ************************************ Title ************************************
 nmr testing

 ***************************** General Parameters ******************************
  
 output verbosity                               : normal  (1)
 write checkpoint data to                       : 036.check
 type of calculation                            : Magnetic Resonance
 stress calculation                             : on
 density difference calculation                 : off
 electron localisation func (ELF) calculation   : off
 Hirshfeld analysis                             : off
 unlimited duration calculation
 timing information                             : on
 memory usage estimate                          : on
 write final potential to formatted file        : off
 write final density to formatted file          : off
 write structure in CIF formatted file          : on
 write structure in CELL formatted file         : on
 write BibTeX reference list                    : on
 write OTFG pseudopotential files               : on
 checkpoint writing                             : both castep_bin and check files
  
 output         length unit                     : A
 output           mass unit                     : amu
 output           time unit                     : ps
 output         charge unit                     : e
 output           spin unit                     : hbar/2
 output         energy unit                     : eV
 output          force unit                     : eV/A
 output       velocity unit                     : A/ps
 output       pressure unit                     : GPa
 output     inv_length unit                     : 1/A
 output      frequency unit                     : cm-1
 output force constant unit                     : eV/A**2
 output         volume unit                     : A**3
 output   IR intensity unit                     : (D/A)**2/amu
 output         dipole unit                     : D
 output         efield unit                     : eV/A/e
 output        entropy unit                     : J/mol/K
  
 wavefunctions paging                           : none
 random number generator seed                   : randomised (112614535)
 data distribution                              : optimal for this architecture
 optimization strategy                          : maximize speed(+++)

 *********************** Exchange-Correlation Parameters ***********************
  
 using functional                               : Perdew Burke Ernzerhof
 relativistic treatment                         : ZORA
 DFT+D: Semi-empirical dispersion correction    : off

 ************************* Pseudopotential Parameters **************************
  
 pseudopotential representation                 : reciprocal space
 <beta|phi> representation                      : reciprocal space
 spin-orbit coupling                            : off

 **************************** Basis Set Parameters *****************************
  
 plane wave basis set cut-off                   :   816.3416   eV
 size of standard grid                          :     1.7500
 size of   fine   gmax                          :    25.6161   1/A
 finite basis set correction                    : automatic
 number of sample energies                      :          3
           sample  spacing                      :     5.0000   eV

 **************************** Electronic Parameters ****************************
  
 number of  electrons                           :  716.0    
 net charge of system                           :  0.000    
 treating system as non-spin-polarized
 number of bands                                :        430

 ********************* Electronic Minimization Parameters **********************
  
 Method: Treating system as metallic with density mixing treatment of electrons,
         and number of  SD  steps               :          1
         and number of  CG  steps               :          4
  
 total energy / atom convergence tol.           : 0.1000E-08   eV
 eigen-energy convergence tolerance             : 0.2458E-09   eV
 max force / atom convergence tol.              : ignored
 convergence tolerance window                   :          3   cycles
 max. number of SCF cycles                      :         50
 number of fixed-spin iterations                :         10
 smearing scheme                                : Gaussian
 smearing width                                 : 0.2000       eV
 Fermi energy convergence tolerance             : 0.2721E-13   eV
 periodic dipole correction                     : NONE

 ************************** Density Mixing Parameters **************************
  
 density-mixing scheme                          : Broyden
 max. length of mixing history                  :         20
 charge density mixing amplitude                : 0.8000    
 cut-off energy for mixing                      :  816.3       eV

 *********************** Population Analysis Parameters ************************
  
 Population analysis with cutoff                :  3.000       A

 ************************ Magnetic Resonance Parameters ************************
  
 Magnetic Resonance Property                    : Chemical Shielding + EFG
 Position Operator Method                       : crystal
 max. number of MagRes CG steps                 :        250
 convergence tolerance window                   :          2   cycles
 energy convergence tolerance                   : 0.1000E-11   eV
 band convergence tolerance                     : 0.1000E-08   eV

 *******************************************************************************
  
 
                           -------------------------------
                                      Unit Cell
                           -------------------------------
        Real Lattice(A)                      Reciprocal Lattice(1/A)
  10.9084081   0.0014101  -0.0035481        0.5759948  -0.0000744   0.0001873
   0.0014107  10.9057799  -0.0080944       -0.0000743   0.5761338   0.0004275
  -0.0035464  -0.0080933  10.9054967        0.0001873   0.0004276   0.5761489
 
                       Lattice parameters(A)       Cell Angles
                    a =   10.908409          alpha =   90.085049
                    b =   10.905783          beta  =   90.037274
                    c =   10.905500          gamma =   89.985168
 
                       Current cell volume = 1297.368241       A**3
 
                           -------------------------------
                                     Cell Contents
                           -------------------------------
                         Total number of ions in cell =   88
                      Total number of species in cell =    4
                        Max number of any one species =   56
 
            xxxxxxxxxxxxxxxxxxxxxxxxxxxxxxxxxxxxxxxxxxxxxxxxxxxxxxxxxxxx
            x  Element    Atom        Fractional coordinates of atoms  x
            x            Number           u          v          w      x
            x----------------------------------------------------------x
            x  O            1         0.125315   0.125245   0.125146   x 
            x  O            2         0.625116   0.125220   0.624937   x 
            x  O            3         0.125239   0.624955   0.624911   x 
            x  O            4         0.624812   0.625014   0.125367   x 
            x  O            5         0.874934   0.374873   0.375069   x 
            x  O            6         0.875250   0.875370   0.875075   x 
            x  O            7         0.374836   0.374881   0.874994   x 
            x  O            8         0.375110   0.875083   0.375146   x 
            x  O            9         0.421390   0.124053   0.124063   x 
            x  O           10         0.330330   0.124899   0.625179   x 
            x  O           11         0.829387   0.624775   0.625894   x 
            x  O           12         0.919643   0.625247   0.124604   x 
            x  O           13         0.124164   0.420784   0.124221   x 
            x  O           14         0.625188   0.329966   0.124900   x 
            x  O           15         0.624999   0.829664   0.626142   x 
            x  O           16         0.125115   0.921020   0.623329   x 
            x  O           17         0.124577   0.123688   0.420828   x 
            x  O           18         0.124496   0.626087   0.329442   x 
            x  O           19         0.625653   0.625585   0.830972   x 
            x  O           20         0.624440   0.124207   0.920517   x 
            x  O           21         0.875397   0.670066   0.374226   x 
            x  O           22         0.874325   0.580719   0.875591   x 
            x  O           23         0.375559   0.079651   0.875413   x 
            x  O           24         0.374055   0.170099   0.374056   x 
            x  O           25         0.170009   0.374631   0.374534   x 
            x  O           26         0.080343   0.874759   0.374673   x 
            x  O           27         0.580301   0.874466   0.874934   x 
            x  O           28         0.670429   0.375666   0.874484   x 
            x  O           29         0.875333   0.375999   0.079546   x 
            x  O           30         0.374026   0.374061   0.170253   x 
            x  O           31         0.375229   0.873933   0.670756   x 
            x  O           32         0.875279   0.875413   0.578995   x 
            x  O           33         0.669279   0.874898   0.374943   x 
            x  O           34         0.079431   0.375789   0.875763   x 
            x  O           35         0.375678   0.670233   0.874568   x 
            x  O           36         0.875439   0.079740   0.375403   x 
            x  O           37         0.874006   0.375340   0.670724   x 
            x  O           38         0.374930   0.875795   0.079535   x 
            x  O           39         0.124895   0.330178   0.625256   x 
            x  O           40         0.625057   0.921089   0.123339   x 
            x  O           41         0.921151   0.124729   0.623848   x 
            x  O           42         0.330355   0.625012   0.124806   x 
            x  O           43         0.124241   0.624459   0.920389   x 
            x  O           44         0.625442   0.125093   0.330507   x 
            x  O           45         0.421048   0.625713   0.625956   x 
            x  O           46         0.830318   0.125515   0.125529   x 
            x  O           47         0.125906   0.125949   0.830557   x 
            x  O           48         0.625383   0.624748   0.419403   x 
            x  O           49         0.874265   0.169669   0.874207   x 
            x  O           50         0.374009   0.580096   0.375948   x 
            x  O           51         0.169756   0.874526   0.874585   x 
            x  O           52         0.580054   0.374465   0.375658   x 
            x  O           53         0.874807   0.873492   0.170994   x 
            x  O           54         0.375153   0.375027   0.579919   x 
            x  O           55         0.125181   0.829690   0.126341   x 
            x  O           56         0.625785   0.420780   0.625912   x 
            x  Zr           1         0.500423   0.500248   0.500437   x 
            x  Zr           2         0.249991   0.749834   1.000071   x 
            x  Zr           3         0.750055   0.999851   0.250342   x 
            x  Zr           4         0.999728   0.250390   0.750226   x 
            x  Zr           5         0.750126   0.250284   0.999758   x 
            x  Zr           6         0.250407   0.999796   0.750008   x 
            x  Zr           7         0.249301   0.249146   0.500150   x 
            x  Zr           8         0.749671   0.749787   0.499761   x 
            x  Zr           9         0.248875   0.500385   0.248979   x 
            x  Zr          10         0.500171   0.249099   0.249277   x 
            x  Sn           1         1.000029   0.749881   0.249989   x 
            x  Sn           2         0.499477   0.999284   0.999053   x 
            x  Sn           3         0.749908   0.500269   0.750347   x 
            x  Sn           4         0.999603   0.500200   0.999976   x 
            x  Sn           5         0.500319   0.749850   0.750240   x 
            x  Sn           6         0.999534   0.999282   0.498980   x 
            x  La           1         0.000278   0.000525   0.999689   x 
            x  La           2         0.749695   0.250054   0.499688   x 
            x  La           3         0.250002   0.499663   0.749754   x 
            x  La           4         0.499906   0.749651   0.250469   x 
            x  La           5         0.250462   0.749723   0.499990   x 
            x  La           6         0.749503   0.499833   0.250347   x 
            x  La           7         0.499640   0.250025   0.749637   x 
            x  La           8         0.000162   0.499651   0.500133   x 
            x  La           9         0.750080   0.750336   0.000446   x 
            x  La          10         0.250359   0.000058   0.249933   x 
            x  La          11         0.249890   0.250097   0.999890   x 
            x  La          12         0.750465   0.000425   0.749932   x 
            x  La          13         0.500246   0.000080   0.499874   x 
            x  La          14         0.000350   0.750296   0.750065   x 
            x  La          15         0.999766   0.250044   0.249785   x 
            x  La          16         0.499727   0.499853   0.000493   x 
            xxxxxxxxxxxxxxxxxxxxxxxxxxxxxxxxxxxxxxxxxxxxxxxxxxxxxxxxxxxx
 
 
                         No user defined ionic velocities
 
                           -------------------------------
                                   Details of Species
                           -------------------------------
 
                               Mass of species in AMU
                                    O   15.9994000
                                    Zr   91.2240000
                                    Sn  118.7100000
                                    La  138.9055000
 
                          Electric Quadrupole Moment (Barn)
                                    O   -0.0255800 Isotope 17
                                    Zr   -0.1760000 Isotope 91
                                    Sn    1.0000000 No Isotope Defined
                                    La    0.2000000 Isotope139
 
                          Files used for pseudopotentials:
                                    O 2|1.1|15|18|20|20:21(qc=7)
                                    Zr 3|2.1|7|8|9|40U:50:41:42
                                    Sn 3|2.2|7|8|9|50:51:42
                                    La 2|2.3|5|6|7|50U:60:51:52(qc=4.5)
 
                           -------------------------------
                              k-Points For BZ Sampling
                           -------------------------------
                       MP grid size for SCF calculation is  3  3  3
                            with an offset of   0.000  0.000  0.000
                       Number of kpoints used =            14
 
                           -------------------------------
                               Symmetry and Constraints
                           -------------------------------
 
                      Maximum deviation from symmetry =  0.00000         ANG
 
         There are no symmetry operations specified or generated for this cell
                      Number of ionic constraints     =           3
                      Point group of crystal =     1: C1, 1, 1
                      Space group of crystal =     1: P1, P 1
 
 
                         Centre of mass is constrained
             Set iprint > 1 for details of linear ionic constraints
 
                         Number of cell constraints= 0
                         Cell constraints are:  1 2 3 4 5 6
 
                         External pressure/stress (GPa)
                          0.00000   0.00000   0.00000
                                    0.00000   0.00000
                                              0.00000
  
+---------------- MEMORY AND SCRATCH DISK ESTIMATES PER PROCESS --------------+
|                                                     Memory          Disk    |
| Baseline code, static data and system overhead      322.0 MB         0.0 MB |
| BLAS internal memory storage                          0.0 MB         0.0 MB |
| Model and support data                             1319.8 MB         0.0 MB |
| Electronic energy minimisation requirements         380.7 MB         0.0 MB |
| Force calculation requirements                       24.1 MB         0.0 MB |
| Stress calculation requirements                      28.3 MB         0.0 MB |
|                                               ----------------------------- |
| Approx. total storage required per process         2022.5 MB         0.0 MB |
|                                                                             |
| Requirements will fluctuate during execution and may exceed these estimates |
+-----------------------------------------------------------------------------+
Calculating finite basis set correction with  3 cut-off energies.
Calculating total energy with cut-off of  806.342eV.
------------------------------------------------------------------------ <-- SCF
SCF loop      Energy           Fermi           Energy gain       Timer   <-- SCF
                               energy          per atom          (sec)   <-- SCF
------------------------------------------------------------------------ <-- SCF
Initial  -5.43617504E+004  0.00000000E+000                        76.82  <-- SCF
      1  -6.30186002E+004  7.65248799E+000   9.83732927E+001     218.64  <-- SCF
      2  -6.55938704E+004  7.23652913E+000   2.92644350E+001     312.52  <-- SCF
      3  -6.56722213E+004  6.80296545E+000   8.90350912E-001     417.28  <-- SCF
      4  -6.56683337E+004  7.73231632E+000  -4.41772237E-002     548.93  <-- SCF
      5  -6.55600531E+004  7.29405007E+000  -1.23046224E+000     679.74  <-- SCF
      6  -6.55616892E+004  7.20798355E+000   1.85929553E-002     841.64  <-- SCF
      7  -6.55614251E+004  7.27966158E+000  -3.00128414E-003     977.59  <-- SCF
      8  -6.55614874E+004  7.28395215E+000   7.08192853E-004    1150.01  <-- SCF
      9  -6.55615078E+004  7.28676883E+000   2.31853731E-004    1301.46  <-- SCF
     10  -6.55615090E+004  7.28383230E+000   1.32754629E-005    1446.46  <-- SCF
     11  -6.55615084E+004  7.28598395E+000  -7.34996288E-006    1593.24  <-- SCF
     12  -6.55615087E+004  7.28638056E+000   3.81350651E-006    1749.47  <-- SCF
     13  -6.55615087E+004  7.28623148E+000   4.43889954E-007    1885.20  <-- SCF
     14  -6.55615087E+004  7.28612947E+000  -1.63180948E-007    2018.95  <-- SCF
     15  -6.55615087E+004  7.28590879E+000  -4.62392634E-008    2162.73  <-- SCF
     16  -6.55615087E+004  7.28575837E+000  -6.48835448E-009    2284.27  <-- SCF
     17  -6.55615087E+004  7.28568788E+000   7.83237278E-011    2403.87  <-- SCF
     18  -6.55615087E+004  7.28564680E+000  -6.49369793E-010    2499.38  <-- SCF
------------------------------------------------------------------------ <-- SCF
 
Final energy, E             =  -65561.50872434     eV
Final free energy (E-TS)    =  -65561.50872434     eV
(energies not corrected for finite basis set)
 
NB est. 0K energy (E-0.5TS)      =  -65561.50872434     eV
 
Calculating total energy with cut-off of  811.342eV.
------------------------------------------------------------------------ <-- SCF
SCF loop      Energy           Fermi           Energy gain       Timer   <-- SCF
                               energy          per atom          (sec)   <-- SCF
------------------------------------------------------------------------ <-- SCF
Initial  -6.55615087E+004  0.00000000E+000                      2535.14  <-- SCF
      1  -6.55615112E+004  7.28555905E+000   2.80537605E-005    2647.24  <-- SCF
      2  -6.55615112E+004  7.28555905E+000   3.85853338E-010    2750.13  <-- SCF
      3  -6.55615112E+004  7.28558991E+000   1.67525595E-008    2864.47  <-- SCF
      4  -6.55615112E+004  7.28559304E+000  -1.74055853E-009    2970.92  <-- SCF
      5  -6.55615112E+004  7.28560220E+000  -1.88145687E-010    3059.74  <-- SCF
      6  -6.55615112E+004  7.28561358E+000  -5.23095633E-011    3147.74  <-- SCF
------------------------------------------------------------------------ <-- SCF
 
Final energy, E             =  -65561.51119435     eV
Final free energy (E-TS)    =  -65561.51119435     eV
(energies not corrected for finite basis set)
 
NB est. 0K energy (E-0.5TS)      =  -65561.51119435     eV
 
Calculating total energy with cut-off of  816.342eV.
------------------------------------------------------------------------ <-- SCF
SCF loop      Energy           Fermi           Energy gain       Timer   <-- SCF
                               energy          per atom          (sec)   <-- SCF
------------------------------------------------------------------------ <-- SCF
Initial  -6.55615112E+004  0.00000000E+000                      3183.40  <-- SCF
      1  -6.55615141E+004  7.28563917E+000   3.30083242E-005    3295.25  <-- SCF
      2  -6.55615141E+004  7.28563917E+000   2.09378870E-010    3389.71  <-- SCF
      3  -6.55615141E+004  7.28562566E+000   2.03325304E-008    3477.57  <-- SCF
      4  -6.55615141E+004  7.28562377E+000   6.22652543E-010    3565.00  <-- SCF
      5  -6.55615141E+004  7.28561981E+000  -8.49327318E-011    3652.67  <-- SCF
------------------------------------------------------------------------ <-- SCF
 
Final energy, E             =  -65561.51410092     eV
Final free energy (E-TS)    =  -65561.51410092     eV
(energies not corrected for finite basis set)
 
NB est. 0K energy (E-0.5TS)      =  -65561.51410092     eV
 
 For future reference: finite basis dEtot/dlog(Ecut) =      -0.437528eV
 Total energy corrected for finite basis set =  -65561.514090 eV
 
  =====================================================================
  +       Calculation of Nuclear Magnetic Resonance Parameters        +
  + ================================================================= +
 
  Starting Calculation of Electric Field Gradient Tensors         |<-- EFG
  +---------------- MEMORY AND SCRATCH DISK ESTIMATES PER PROCESS --------------+
  |                                                     Memory          Disk    |
  | Model and support data                             1317.5 MB         0.0 MB |
  | NMR EFG calculation requirements                    366.4 MB         0.0 MB |
  |                                               ----------------------------- |
  | Approx. total storage required per process         1683.9 MB         0.0 MB |
  |                                                                             |
  | Requirements will fluctuate during execution and may exceed these estimates |
  +-----------------------------------------------------------------------------+
  Total Time for EFG Tensors                     406.31 sec       |<-- EFG
 
  Starting Calculation of Chemical Shielding Tensors              |<-- NMR
  +---------------- MEMORY AND SCRATCH DISK ESTIMATES PER PROCESS --------------+
  |                                                     Memory          Disk    |
  | Model and support data                             1317.5 MB         0.0 MB |
  | NMR chemical shift calculation requirements         562.7 MB         0.0 MB |
  |                                               ----------------------------- |
  | Approx. total storage required per process         1880.2 MB         0.0 MB |
  |                                                                             |
  | Requirements will fluctuate during execution and may exceed these estimates |
  +-----------------------------------------------------------------------------+
  Starting k-point:   1 of   1                                    |<-- NMR
  Total Time for step 1 of 6:                   3281.01 sec       |<-- NMR
  Total Time for step 2 of 6:                   3294.35 sec       |<-- NMR
  Total Time for step 3 of 6:                   3289.74 sec       |<-- NMR
  Total Time for step 4 of 6:                   3278.91 sec       |<-- NMR
  Total Time for step 5 of 6:                   3281.96 sec       |<-- NMR
  Total Time for step 6 of 6:                   3279.37 sec       |<-- NMR
  Total Time for Chemical Shielding Tensors    28867.01 sec       |<-- NMR
 
  ========================================================================
  |           Chemical Shielding and Electric Field Gradient Tensors     |
  |----------------------------------------------------------------------|
  |     Nucleus                Shielding tensor             EFG Tensor   |
  |  Species       Ion    Iso(ppm)   Aniso(ppm)  Asym    Cq(MHz)    Eta  |
  |    O           1     -316.87      13.50      0.73  -8.776E-02   0.56 |
  |    O           2     -316.84      -7.54      0.68   5.082E-02   0.79 |
  |    O           3     -317.09     -11.74      0.84   6.105E-02   0.96 |
  |    O           4     -317.88     -14.19      0.68  -4.081E-02   0.24 |
  |    O           5     -316.61     -12.92      0.97  -5.654E-02   0.92 |
  |    O           6     -317.30     -18.97      0.59   3.676E-02   0.77 |
  |    O           7     -316.65       8.09      0.65  -7.041E-02   0.61 |
  |    O           8     -316.55      10.64      0.84  -4.412E-02   0.56 |
  |    O           9      -88.80      95.81      0.20  -3.166E+00   0.12 |
  |    O          10     -164.12     150.37      0.83   1.075E+00   0.81 |
  |    O          11      -87.82      84.15      0.24  -3.143E+00   0.08 |
  |    O          12       -4.54      69.97      0.52   3.903E+00   0.85 |
  |    O          13      -91.46      96.76      0.20  -3.175E+00   0.12 |
  |    O          14     -163.36     154.00      0.80   1.087E+00   0.79 |
  |    O          15      -88.60      85.13      0.09  -3.199E+00   0.09 |
  |    O          16      -84.87      85.99      0.12  -3.178E+00   0.08 |
  |    O          17      -85.48      86.92      0.14  -3.169E+00   0.10 |
  |    O          18      -87.19      82.94      0.08  -3.252E+00   0.11 |
  |    O          19       -2.60      67.63      0.82   3.844E+00   0.88 |
  |    O          20      -84.86      84.78      0.30  -3.169E+00   0.09 |
  |    O          21      -87.81      84.62      0.17  -3.197E+00   0.09 |
  |    O          22       -2.39      66.85      0.80   3.862E+00   0.88 |
  |    O          23      -87.85      85.85      0.14  -3.268E+00   0.12 |
  |    O          24     -162.11     151.61      0.78   1.069E+00   0.80 |
  |    O          25     -161.54     143.77      0.78   1.068E+00   0.73 |
  |    O          26       -5.78      70.83      0.28   3.931E+00   0.80 |
  |    O          27       -1.31      68.96      0.54   3.927E+00   0.84 |
  |    O          28      -88.23      88.65      0.27  -3.181E+00   0.10 |
  |    O          29      -87.87      78.78      0.15  -3.244E+00   0.11 |
  |    O          30     -161.90     151.33      0.76   1.055E+00   0.80 |
  |    O          31      -90.32      96.44      0.26  -3.138E+00   0.11 |
  |    O          32      -85.88      91.72      0.35  -3.149E+00   0.09 |
  |    O          33     -163.65     153.14      0.87   1.046E+00   0.82 |
  |    O          34      -90.48      85.68      0.16  -3.250E+00   0.12 |
  |    O          35      -88.24      86.68      0.31  -3.189E+00   0.09 |
  |    O          36      -88.94      87.83      0.16  -3.250E+00   0.12 |
  |    O          37      -90.78      94.58      0.23  -3.164E+00   0.11 |
  |    O          38      -88.23      92.44      0.26  -3.203E+00   0.10 |
  |    O          39     -162.79     148.39      0.83   1.085E+00   0.79 |
  |    O          40      -83.94      85.38      0.13  -3.186E+00   0.09 |
  |    O          41      -88.64      93.20      0.30  -3.159E+00   0.11 |
  |    O          42     -164.98     152.19      0.86   1.078E+00   0.80 |
  |    O          43      -87.51      87.50      0.36  -3.204E+00   0.09 |
  |    O          44     -164.11     157.54      0.80   1.059E+00   0.87 |
  |    O          45      -89.95      87.70      0.12  -3.253E+00   0.13 |
  |    O          46     -162.22     145.16      0.83   1.058E+00   0.75 |
  |    O          47     -162.67     151.06      0.81   1.044E+00   0.80 |
  |    O          48     -165.16     158.44      0.84   1.062E+00   0.87 |
  |    O          49     -161.90     151.52      0.87   1.085E+00   0.78 |
  |    O          50     -162.67     145.65      0.78   1.041E+00   0.80 |
  |    O          51     -161.52     146.34      0.88   1.084E+00   0.73 |
  |    O          52     -164.05     151.32      0.75   1.046E+00   0.87 |
  |    O          53      -84.80      87.68      0.09  -3.198E+00   0.10 |
  |    O          54     -163.23     142.76      0.77   1.055E+00   0.80 |
  |    O          55      -87.88      85.39      0.08  -3.195E+00   0.09 |
  |    O          56      -92.12      88.23      0.10  -3.230E+00   0.14 |
  |    Zr          1     1622.97    -121.48      0.15  -3.912E+01   0.04 |
  |    Zr          2     1620.91    -127.62      0.19  -3.695E+01   0.13 |
  |    Zr          3     1627.89    -127.28      0.12  -3.805E+01   0.03 |
  |    Zr          4     1626.98    -125.35      0.10  -3.800E+01   0.06 |
  |    Zr          5     1627.24    -125.85      0.06  -3.779E+01   0.13 |
  |    Zr          6     1626.98    -124.88      0.13  -3.796E+01   0.04 |
  |    Zr          7     1629.07    -121.46      0.04  -3.977E+01   0.03 |
  |    Zr          8     1621.34    -125.12      0.10  -3.695E+01   0.13 |
  |    Zr          9     1622.69    -121.33      0.18  -3.888E+01   0.03 |
  |    Zr         10     1628.48    -122.29      0.03  -3.992E+01   0.02 |
  |    Sn          1     3257.89     -61.39      0.24   1.284E+02   0.13 |
  |    Sn          2     3251.54     -47.01      0.19   1.295E+02   0.07 |
  |    Sn          3     3257.26     -54.14      0.12   1.279E+02   0.05 |
  |    Sn          4     3258.43     -55.24      0.15   1.288E+02   0.07 |
  |    Sn          5     3257.24     -54.12      0.28   1.288E+02   0.14 |
  |    Sn          6     3251.92     -45.25      0.13   1.289E+02   0.05 |
  |    La          1     4757.89     856.92      0.04  -8.735E+01   0.06 |
  |    La          2     4699.81     766.90      0.04  -8.125E+01   0.07 |
  |    La          3     4704.60     762.01      0.06  -8.259E+01   0.07 |
  |    La          4     4753.95     867.54      0.04  -8.675E+01   0.05 |
  |    La          5     4650.96     658.92      0.10  -7.825E+01   0.13 |
  |    La          6     4703.06     748.80      0.04  -8.159E+01   0.07 |
  |    La          7     4706.67     765.07      0.06  -8.273E+01   0.08 |
  |    La          8     4712.44     760.14      0.04  -8.386E+01   0.07 |
  |    La          9     4548.93     381.18      0.08  -7.094E+01   0.10 |
  |    La         10     4653.91     667.42      0.11  -7.881E+01   0.12 |
  |    La         11     4701.44     788.08      0.11  -8.150E+01   0.12 |
  |    La         12     4657.59     657.36      0.09  -7.974E+01   0.11 |
  |    La         13     4756.19     865.09      0.04  -8.612E+01   0.05 |
  |    La         14     4664.40     653.49      0.08  -8.087E+01   0.11 |
  |    La         15     4708.10     785.69      0.11  -8.298E+01   0.13 |
  |    La         16     4710.86     747.70      0.02  -8.281E+01   0.06 |
  ========================================================================
 
 *********************** Forces ***********************
 *                                                    *
 *            Cartesian components (eV/A)             *
 * -------------------------------------------------- *
 *                   x            y            z      *
 *                                                    *
 * O         1      0.00314      0.00650     -0.00348 *
 * O         2     -0.00199      0.00016     -0.00684 *
 * O         3      0.00479     -0.00263      0.00101 *
 * O         4     -0.00265     -0.00364      0.00692 *
 * O         5     -0.00223     -0.00393     -0.00262 *
 * O         6      0.00427      0.00596      0.00141 *
 * O         7     -0.00565     -0.00359      0.00451 *
 * O         8      0.00361      0.00191      0.00003 *
 * O         9     -0.00007     -0.02087     -0.02666 *
 * O        10     -0.00462     -0.01443      0.00847 *
 * O        11      0.00368     -0.01715      0.01518 *
 * O        12      0.00888     -0.00770      0.00025 *
 * O        13     -0.03156      0.00145     -0.03238 *
 * O        14      0.00426     -0.00980      0.00108 *
 * O        15     -0.01760      0.00164      0.01841 *
 * O        16     -0.00459      0.00468     -0.01672 *
 * O        17     -0.03401     -0.03052     -0.01029 *
 * O        18     -0.02622      0.01910     -0.00914 *
 * O        19     -0.00063      0.00544      0.00054 *
 * O        20     -0.02437     -0.00498      0.00127 *
 * O        21      0.02167      0.00033     -0.01181 *
 * O        22      0.00330     -0.00810      0.00807 *
 * O        23      0.01541     -0.00586      0.01805 *
 * O        24      0.00664     -0.00582     -0.00712 *
 * O        25     -0.00770     -0.00161     -0.01385 *
 * O        26      0.00105      0.00556     -0.00123 *
 * O        27     -0.00746     -0.00060     -0.00399 *
 * O        28     -0.00300      0.01733     -0.01844 *
 * O        29      0.02808      0.02818     -0.00025 *
 * O        30     -0.00935     -0.00694     -0.00244 *
 * O        31      0.01901     -0.00913      0.00425 *
 * O        32      0.01338      0.01578     -0.00874 *
 * O        33      0.00510      0.00392      0.00240 *
 * O        34     -0.00731      0.01626      0.02141 *
 * O        35      0.01145     -0.00229     -0.01843 *
 * O        36      0.01745     -0.00857      0.01531 *
 * O        37     -0.00931      0.00674      0.00705 *
 * O        38      0.01687      0.01692     -0.00548 *
 * O        39     -0.00961     -0.01261      0.01611 *
 * O        40     -0.01883      0.00320     -0.00385 *
 * O        41      0.00982      0.00153     -0.01426 *
 * O        42     -0.01504      0.00678     -0.00376 *
 * O        43     -0.01052     -0.02997      0.00673 *
 * O        44      0.00786     -0.00542     -0.01255 *
 * O        45      0.01114      0.00999      0.01207 *
 * O        46     -0.00031      0.00157      0.00898 *
 * O        47      0.00677      0.00957     -0.00578 *
 * O        48      0.00041      0.00103      0.00891 *
 * O        49      0.00983      0.01790      0.00119 *
 * O        50     -0.00331     -0.00692     -0.01057 *
 * O        51      0.01337      0.00601      0.00614 *
 * O        52     -0.01338     -0.00586     -0.00506 *
 * O        53      0.02513     -0.00968      0.00614 *
 * O        54     -0.00023     -0.00071     -0.00780 *
 * O        55     -0.01631     -0.00084      0.01771 *
 * O        56      0.00908      0.00836      0.00666 *
 * Zr        1     -0.02549     -0.02040     -0.00895 *
 * Zr        2     -0.00148      0.00823     -0.01716 *
 * Zr        3      0.00250     -0.01024     -0.00212 *
 * Zr        4     -0.01088     -0.00253     -0.00184 *
 * Zr        5     -0.00049     -0.00891     -0.01472 *
 * Zr        6     -0.00681     -0.01800      0.00557 *
 * Zr        7     -0.00156      0.00951     -0.01155 *
 * Zr        8     -0.00231     -0.00819      0.01932 *
 * Zr        9      0.00219     -0.00480      0.01439 *
 * Zr       10     -0.00892      0.00300      0.00341 *
 * Sn        1     -0.00721      0.00651      0.00647 *
 * Sn        2      0.03023     -0.00433      0.00010 *
 * Sn        3     -0.00188      0.00700     -0.00219 *
 * Sn        4     -0.01163      0.02654     -0.01399 *
 * Sn        5      0.00400     -0.00048      0.00814 *
 * Sn        6      0.00218     -0.00919      0.02580 *
 * La        1     -0.00458     -0.01804      0.00274 *
 * La        2      0.00584      0.01392      0.01904 *
 * La        3      0.01167      0.01192     -0.00357 *
 * La        4     -0.00110     -0.00007     -0.01255 *
 * La        5     -0.00423      0.00175      0.00018 *
 * La        6      0.00451      0.00815     -0.00426 *
 * La        7      0.02005      0.01291      0.00442 *
 * La        8     -0.00286      0.01142     -0.00105 *
 * La        9     -0.00208      0.00238     -0.00359 *
 * La       10     -0.00520     -0.00463      0.00950 *
 * La       11      0.00957     -0.00122      0.00004 *
 * La       12      0.00309     -0.00712      0.00301 *
 * La       13     -0.00660     -0.00291      0.01286 *
 * La       14     -0.01176      0.00485     -0.00503 *
 * La       15      0.00519     -0.00056      0.01603 *
 * La       16      0.01848      0.00993     -0.01117 *
 *                                                    *
 ******************************************************
 
 ***************** Stress Tensor *****************
 *                                               *
 *          Cartesian components (GPa)           *
 * --------------------------------------------- *
 *             x             y             z     *
 *                                               *
 *  x      0.025745      0.002401     -0.011656  *
 *  y      0.002401      0.030502     -0.021542  *
 *  z     -0.011656     -0.021542      0.024530  *
 *                                               *
 *  Pressure:   -0.0269                          *
 *                                               *
 *************************************************
 
 Pseudo atomic calculation performed for O 2s2 2p4
 
 Converged in 39 iterations to a total energy of -432.6554 eV
 
 
 Pseudo atomic calculation performed for Zr 4s2 4p6 4d2 5s2
 
 Converged in 38 iterations to a total energy of -1285.4931 eV
 
 
 Pseudo atomic calculation performed for Sn 4d10 5s2 5p2
 
 Converged in 48 iterations to a total energy of -2044.5414 eV
 
 
 Pseudo atomic calculation performed for La 5s2 5p6 5d1 6s2
 
 Converged in 34 iterations to a total energy of -968.0372 eV
 
Charge spilling parameter for spin component 1 = 0.23%
 
     Atomic Populations (Mulliken)
     -----------------------------
Species   Ion     s      p      d      f     Total  Charge (e)
==============================================================
  O        1     1.87   5.00   0.00   0.00   6.87    -0.87
  O        2     1.87   5.00   0.00   0.00   6.87    -0.87
  O        3     1.87   5.00   0.00   0.00   6.87    -0.87
  O        4     1.87   5.00   0.00   0.00   6.87    -0.87
  O        5     1.87   5.00   0.00   0.00   6.87    -0.87
  O        6     1.87   5.00   0.00   0.00   6.87    -0.87
  O        7     1.87   5.00   0.00   0.00   6.87    -0.87
  O        8     1.87   5.00   0.00   0.00   6.87    -0.87
  O        9     1.87   4.99   0.00   0.00   6.85    -0.85
  O       10     1.86   4.95   0.00   0.00   6.80    -0.80
  O       11     1.87   4.99   0.00   0.00   6.85    -0.85
  O       12     1.88   5.02   0.00   0.00   6.91    -0.91
  O       13     1.87   4.99   0.00   0.00   6.85    -0.85
  O       14     1.86   4.95   0.00   0.00   6.80    -0.80
  O       15     1.87   4.99   0.00   0.00   6.85    -0.85
  O       16     1.87   4.99   0.00   0.00   6.85    -0.85
  O       17     1.87   4.99   0.00   0.00   6.85    -0.85
  O       18     1.87   4.99   0.00   0.00   6.85    -0.85
  O       19     1.88   5.02   0.00   0.00   6.90    -0.90
  O       20     1.87   4.98   0.00   0.00   6.85    -0.85
  O       21     1.87   4.99   0.00   0.00   6.85    -0.85
  O       22     1.88   5.02   0.00   0.00   6.90    -0.90
  O       23     1.87   4.99   0.00   0.00   6.85    -0.85
  O       24     1.86   4.94   0.00   0.00   6.80    -0.80
  O       25     1.86   4.94   0.00   0.00   6.80    -0.80
  O       26     1.88   5.02   0.00   0.00   6.91    -0.91
  O       27     1.88   5.02   0.00   0.00   6.91    -0.91
  O       28     1.87   4.99   0.00   0.00   6.85    -0.85
  O       29     1.87   4.99   0.00   0.00   6.85    -0.85
  O       30     1.86   4.94   0.00   0.00   6.80    -0.80
  O       31     1.87   4.99   0.00   0.00   6.85    -0.85
  O       32     1.87   4.99   0.00   0.00   6.86    -0.86
  O       33     1.86   4.95   0.00   0.00   6.80    -0.80
  O       34     1.87   4.99   0.00   0.00   6.85    -0.85
  O       35     1.87   4.99   0.00   0.00   6.85    -0.85
  O       36     1.87   4.99   0.00   0.00   6.85    -0.85
  O       37     1.87   4.99   0.00   0.00   6.85    -0.85
  O       38     1.87   4.99   0.00   0.00   6.85    -0.85
  O       39     1.86   4.95   0.00   0.00   6.80    -0.80
  O       40     1.87   4.99   0.00   0.00   6.85    -0.85
  O       41     1.87   4.98   0.00   0.00   6.85    -0.85
  O       42     1.86   4.95   0.00   0.00   6.80    -0.80
  O       43     1.87   4.99   0.00   0.00   6.85    -0.85
  O       44     1.86   4.94   0.00   0.00   6.80    -0.80
  O       45     1.87   4.99   0.00   0.00   6.86    -0.86
  O       46     1.86   4.95   0.00   0.00   6.80    -0.80
  O       47     1.86   4.94   0.00   0.00   6.80    -0.80
  O       48     1.86   4.95   0.00   0.00   6.80    -0.80
  O       49     1.86   4.95   0.00   0.00   6.80    -0.80
  O       50     1.86   4.94   0.00   0.00   6.80    -0.80
  O       51     1.86   4.95   0.00   0.00   6.80    -0.80
  O       52     1.86   4.94   0.00   0.00   6.80    -0.80
  O       53     1.87   4.99   0.00   0.00   6.85    -0.85
  O       54     1.86   4.94   0.00   0.00   6.80    -0.80
  O       55     1.87   4.99   0.00   0.00   6.85    -0.85
  O       56     1.87   4.99   0.00   0.00   6.85    -0.85
  Zr       1     2.38   6.48   1.92   0.00  10.78     1.22
  Zr       2     2.37   6.50   1.92   0.00  10.79     1.21
  Zr       3     2.37   6.49   1.92   0.00  10.78     1.22
  Zr       4     2.38   6.49   1.92   0.00  10.79     1.21
  Zr       5     2.37   6.49   1.92   0.00  10.78     1.22
  Zr       6     2.37   6.49   1.92   0.00  10.78     1.22
  Zr       7     2.36   6.47   1.93   0.00  10.76     1.24
  Zr       8     2.37   6.50   1.92   0.00  10.79     1.21
  Zr       9     2.37   6.48   1.93   0.00  10.77     1.23
  Zr      10     2.37   6.47   1.93   0.00  10.77     1.23
  Sn       1     1.05   1.32  10.00   0.00  12.37     1.63
  Sn       2     1.05   1.32  10.00   0.00  12.37     1.63
  Sn       3     1.05   1.32  10.00   0.00  12.37     1.63
  Sn       4     1.05   1.32  10.00   0.00  12.37     1.63
  Sn       5     1.05   1.32  10.00   0.00  12.37     1.63
  Sn       6     1.05   1.32  10.00   0.00  12.37     1.63
  La       1     2.04   6.15   1.19   0.00   9.39     1.61
  La       2     2.07   6.15   1.19   0.00   9.41     1.59
  La       3     2.06   6.16   1.19   0.00   9.41     1.59
  La       4     2.04   6.15   1.19   0.00   9.38     1.62
  La       5     2.09   6.17   1.19   0.00   9.45     1.55
  La       6     2.07   6.16   1.19   0.00   9.42     1.58
  La       7     2.04   6.16   1.19   0.00   9.39     1.61
  La       8     2.03   6.17   1.19   0.00   9.39     1.61
  La       9     2.14   6.21   1.19   0.00   9.54     1.46
  La      10     2.07   6.17   1.19   0.00   9.44     1.56
  La      11     2.07   6.15   1.19   0.00   9.41     1.59
  La      12     2.08   6.18   1.19   0.00   9.46     1.54
  La      13     2.02   6.15   1.19   0.00   9.36     1.64
  La      14     2.08   6.18   1.19   0.00   9.45     1.55
  La      15     2.04   6.16   1.19   0.00   9.39     1.61
  La      16     2.04   6.17   1.19   0.00   9.41     1.59
==============================================================
 
            Bond              Population      Length (A)
============================================================
         O 45 -- Sn 5              0.34        2.10030
         O 23 -- Sn 2              0.35        2.10095
         O 18 -- Sn 1              0.35        2.10189
         O 36 -- Sn 6              0.35        2.10216
         O 56 -- Sn 3              0.34        2.10262
         O 53 -- Sn 1              0.35        2.10388
         O 32 -- Sn 6              0.35        2.10463
         O 34 -- Sn 4              0.34        2.10467
         O 9  -- Sn 2              0.34        2.10502
         O 29 -- Sn 4              0.35        2.10506
         O 13 -- Sn 4              0.34        2.10540
         O 17 -- Sn 6              0.34        2.10562
         O 38 -- Sn 2              0.35        2.10616
         O 28 -- Sn 3              0.35        2.10678
         O 37 -- Sn 3              0.34        2.10710
         O 40 -- Sn 2              0.35        2.10744
         O 43 -- Sn 4              0.35        2.10812
         O 16 -- Sn 6              0.35        2.10819
         O 11 -- Sn 3              0.35        2.10833
         O 31 -- Sn 5              0.34        2.10843
         O 15 -- Sn 5              0.35        2.10843
         O 55 -- Sn 1              0.35        2.10859
         O 35 -- Sn 5              0.35        2.10888
         O 21 -- Sn 1              0.35        2.10908
         O 13 -- Zr 9              0.45        2.10953
         O 27 -- Sn 5              0.34        2.10973
         O 41 -- Sn 6              0.34        2.11010
         O 20 -- Sn 2              0.34        2.11039
         O 26 -- Sn 6              0.33        2.11056
         O 9  -- Zr 10             0.46        2.11103
         O 27 -- Sn 2              0.33        2.11138
         O 48 -- Zr 8              0.42        2.11223
         O 12 -- Sn 4              0.34        2.11263
         O 26 -- Sn 1              0.33        2.11300
         O 17 -- Zr 7              0.46        2.11361
         O 22 -- Sn 3              0.33        2.11470
         O 14 -- Zr 5              0.42        2.11504
         O 44 -- Zr 3              0.43        2.11535
         O 19 -- Sn 3              0.34        2.11543
         O 42 -- Zr 2              0.42        2.11550
         O 42 -- Zr 9              0.41        2.11630
         O 22 -- Sn 4              0.33        2.11641
         O 49 -- Zr 5              0.41        2.11650
         O 12 -- Sn 1              0.32        2.11653
         O 10 -- Zr 7              0.42        2.11654
         O 19 -- Sn 5              0.33        2.11707
         O 44 -- Zr 10             0.42        2.11708
         O 31 -- Zr 6              0.45        2.11711
         O 39 -- Zr 7              0.42        2.11713
         O 10 -- Zr 6              0.42        2.11717
         O 49 -- Zr 4              0.41        2.11724
         O 52 -- Zr 1              0.44        2.11740
         O 14 -- Zr 10             0.42        2.11754
         O 24 -- Zr 7              0.43        2.11764
         O 36 -- Zr 3              0.45        2.11767
         O 39 -- Zr 4              0.42        2.11786
         O 33 -- Zr 8              0.42        2.11824
         O 18 -- Zr 9              0.45        2.11829
         O 23 -- Zr 6              0.45        2.11831
         O 33 -- Zr 3              0.42        2.11837
         O 48 -- Zr 1              0.41        2.11864
         O 54 -- Zr 1              0.43        2.11887
         O 37 -- Zr 4              0.45        2.11906
         O 45 -- Zr 1              0.45        2.11920
         O 51 -- Zr 2              0.42        2.11928
         O 38 -- Zr 2              0.45        2.11930
         O 24 -- Zr 10             0.43        2.11970
         O 51 -- Zr 6              0.41        2.11987
         O 34 -- Zr 4              0.45        2.11990
         O 56 -- Zr 1              0.45        2.11992
         O 30 -- Zr 10             0.43        2.12000
         O 28 -- Zr 5              0.45        2.12023
         O 30 -- Zr 9              0.43        2.12035
         O 53 -- Zr 3              0.45        2.12054
         O 32 -- Zr 8              0.45        2.12061
         O 29 -- Zr 5              0.45        2.12089
         O 25 -- Zr 7              0.43        2.12156
         O 46 -- Zr 5              0.43        2.12165
         O 43 -- Zr 2              0.45        2.12184
         O 50 -- Zr 1              0.44        2.12213
         O 25 -- Zr 9              0.43        2.12214
         O 47 -- Zr 4              0.43        2.12243
         O 35 -- Zr 2              0.45        2.12249
         O 46 -- Zr 3              0.42        2.12254
         O 41 -- Zr 4              0.46        2.12267
         O 47 -- Zr 6              0.43        2.12272
         O 15 -- Zr 8              0.45        2.12278
         O 55 -- Zr 2              0.45        2.12287
         O 16 -- Zr 6              0.46        2.12349
         O 21 -- Zr 8              0.45        2.12352
         O 40 -- Zr 3              0.46        2.12367
         O 11 -- Zr 8              0.45        2.12377
         O 20 -- Zr 5              0.46        2.12437
         O 52 -- Zr 10             0.43        2.12642
         O 54 -- Zr 7              0.43        2.12650
         O 50 -- Zr 9              0.43        2.12857
         O 4  -- La 4              0.18        2.35825
         O 6  -- La 1              0.18        2.35859
         O 8  -- La 13             0.19        2.35899
         O 8  -- La 4              0.19        2.35988
         O 5  -- La 15             0.18        2.36014
         O 5  -- La 8              0.19        2.36031
         O 2  -- La 13             0.19        2.36033
         O 2  -- La 7              0.18        2.36037
         O 1  -- La 15             0.18        2.36042
         O 7  -- La 7              0.18        2.36060
         O 4  -- La 16             0.18        2.36062
         O 7  -- La 11             0.17        2.36086
         O 4  -- La 6              0.17        2.36087
         O 3  -- La 8              0.18        2.36087
         O 7  -- La 3              0.18        2.36090
         O 2  -- La 2              0.17        2.36110
         O 3  -- La 3              0.17        2.36115
         O 5  -- La 2              0.17        2.36120
         O 1  -- La 1              0.21        2.36122
         O 1  -- La 11             0.17        2.36123
         O 8  -- La 10             0.17        2.36141
         O 6  -- La 14             0.17        2.36164
         O 6  -- La 12             0.16        2.36169
         O 1  -- La 10             0.17        2.36191
         O 7  -- La 16             0.19        2.36214
         O 8  -- La 5              0.17        2.36230
         O 5  -- La 6              0.18        2.36251
         O 2  -- La 12             0.18        2.36266
         O 3  -- La 5              0.16        2.36267
         O 3  -- La 14             0.18        2.36290
         O 4  -- La 9              0.16        2.36644
         O 6  -- La 9              0.15        2.36685
         O 49 -- La 12             0.13        2.65684
         O 50 -- La 5              0.13        2.65745
         O 47 -- La 11             0.12        2.65758
         O 48 -- La 6              0.12        2.66137
         O 24 -- La 10             0.13        2.66146
         O 51 -- La 14             0.13        2.66216
         O 44 -- La 2              0.12        2.66245
         O 46 -- La 15             0.12        2.66267
         O 52 -- La 2              0.13        2.66378
         O 19 -- La 9              0.24        2.66445
         O 30 -- La 11             0.13        2.66521
         O 53 -- La 9              0.17        2.66545
         O 22 -- La 9              0.24        2.66576
         O 10 -- La 7              0.12        2.66607
         O 42 -- La 16             0.13        2.66665
         O 39 -- La 3              0.12        2.66716
         O 33 -- La 4              0.13        2.66730
         O 33 -- La 13             0.13        2.66766
         O 12 -- La 9              0.24        2.66769
         O 40 -- La 9              0.19        2.66787
         O 55 -- La 10             0.17        2.66924
         O 48 -- La 4              0.13        2.66951
         O 38 -- La 10             0.17        2.67041
         O 54 -- La 7              0.13        2.67048
         O 39 -- La 8              0.14        2.67077
         O 14 -- La 6              0.12        2.67091
         O 54 -- La 3              0.13        2.67145
         O 27 -- La 9              0.24        2.67152
         O 25 -- La 15             0.13        2.67174
         O 42 -- La 4              0.13        2.67188
         O 31 -- La 5              0.17        2.67313
         O 44 -- La 13             0.13        2.67342
         O 21 -- La 6              0.18        2.67379
         O 14 -- La 16             0.13        2.67397
         O 10 -- La 13             0.13        2.67438
         O 15 -- La 12             0.19        2.67492
         O 18 -- La 5              0.17        2.67500
         O 36 -- La 2              0.17        2.67622
         O 16 -- La 5              0.19        2.67626
         O 47 -- La 1              0.15        2.67635
         O 43 -- La 14             0.19        2.67643
         O 52 -- La 6              0.13        2.67651
         O 51 -- La 1              0.14        2.67653
         O 25 -- La 8              0.13        2.67661
         O 26 -- La 10             0.24        2.67722
         O 20 -- La 12             0.19        2.67729
         O 49 -- La 1              0.14        2.67743
         O 17 -- La 10             0.17        2.67745
         O 34 -- La 11             0.17        2.67765
         O 23 -- La 11             0.17        2.67786
         O 26 -- La 5              0.24        2.67802
         O 29 -- La 6              0.18        2.67812
         O 35 -- La 16             0.19        2.67833
         O 37 -- La 2              0.17        2.67860
         O 46 -- La 1              0.14        2.67865
         O 36 -- La 15             0.18        2.67897
         O 23 -- La 7              0.18        2.67902
         O 13 -- La 11             0.17        2.67919
         O 11 -- La 14             0.19        2.67920
         O 29 -- La 15             0.17        2.67944
         O 45 -- La 5              0.17        2.67950
         O 56 -- La 2              0.17        2.67992
         O 32 -- La 12             0.18        2.67999
         O 35 -- La 3              0.17        2.68028
         O 34 -- La 3              0.19        2.68060
         O 28 -- La 16             0.18        2.68077
         O 50 -- La 4              0.14        2.68126
         O 43 -- La 3              0.17        2.68178
         O 56 -- La 7              0.18        2.68200
         O 28 -- La 7              0.16        2.68228
         O 13 -- La 15             0.18        2.68235
         O 22 -- La 14             0.24        2.68240
         O 21 -- La 8              0.18        2.68244
         O 19 -- La 16             0.24        2.68266
         O 41 -- La 2              0.18        2.68335
         O 27 -- La 12             0.24        2.68348
         O 30 -- La 16             0.13        2.68354
         O 9  -- La 10             0.17        2.68398
         O 45 -- La 3              0.18        2.68401
         O 37 -- La 8              0.19        2.68414
         O 41 -- La 12             0.19        2.68427
         O 12 -- La 6              0.24        2.68438
         O 15 -- La 13             0.18        2.68441
         O 32 -- La 14             0.19        2.68459
         O 11 -- La 8              0.18        2.68512
         O 20 -- La 7              0.18        2.68555
         O 18 -- La 8              0.18        2.68658
         O 24 -- La 13             0.13        2.68689
         O 9  -- La 11             0.17        2.68777
         O 38 -- La 4              0.19        2.68876
         O 17 -- La 15             0.17        2.68985
         O 31 -- La 13             0.18        2.69019
         O 55 -- La 1              0.19        2.69055
         O 16 -- La 14             0.18        2.69082
         O 40 -- La 4              0.18        2.70057
         O 53 -- La 1              0.19        2.70086
         O 31 -- O 45             -0.06        2.79504
         O 26 -- O 55             -0.06        2.79512
         O 37 -- O 56             -0.06        2.79541
         O 13 -- O 34             -0.06        2.79554
         O 9  -- O 38             -0.06        2.79633
         O 12 -- O 53             -0.06        2.79648
         O 36 -- O 41             -0.06        2.79727
         O 18 -- O 26             -0.06        2.79744
         O 34 -- O 43             -0.06        2.79765
         O 35 -- O 45             -0.06        2.79807
         O 27 -- O 40             -0.06        2.79818
         O 28 -- O 56             -0.06        2.79818
         O 9  -- O 23             -0.06        2.79856
         O 19 -- O 22             -0.05        2.79871
         O 15 -- O 27             -0.06        2.79921
         O 19 -- O 27             -0.05        2.79954
         O 16 -- O 26             -0.06        2.80015
         O 13 -- O 29             -0.06        2.80033
         O 20 -- O 23             -0.06        2.80124
         O 12 -- O 22             -0.05        2.80164
         O 17 -- O 26             -0.06        2.80222
         O 18 -- O 21             -0.06        2.80223
         O 17 -- O 36             -0.06        2.80343
         O 12 -- O 29             -0.06        2.80362
         O 11 -- O 37             -0.06        2.80692
         O 32 -- O 41             -0.06        2.80696
         O 44 -- O 52             -0.04        2.80704
         O 12 -- O 21             -0.06        2.80717
         O 11 -- O 22             -0.05        2.80861
         O 20 -- O 27             -0.05        2.80952
         O 15 -- O 31             -0.06        2.80955
         O 19 -- O 28             -0.05        2.80986
         O 22 -- O 43             -0.05        2.81008
         O 19 -- O 35             -0.05        2.81053
         O 16 -- O 32             -0.06        2.81190
         O 23 -- O 47             -0.03        2.81230
         O 33 -- O 44             -0.03        2.81275
         O 33 -- O 48             -0.03        2.81277
         O 18 -- O 50             -0.03        2.81340
         O 38 -- O 40             -0.06        2.81340
         O 48 -- O 52             -0.03        2.81406
         O 36 -- O 46             -0.03        2.81411
         O 36 -- O 44             -0.03        2.81418
         O 34 -- O 47             -0.03        2.81419
         O 53 -- O 55             -0.06        2.81514
         O 17 -- O 24             -0.03        2.81526
         O 21 -- O 48             -0.03        2.81569
         O 10 -- O 54             -0.03        2.81582
         O 20 -- O 49             -0.03        2.81617
         O 10 -- O 23             -0.03        2.81712
         O 43 -- O 51             -0.03        2.81755
         O 45 -- O 50             -0.03        2.81756
         O 38 -- O 55             -0.03        2.81759
         O 13 -- O 30             -0.03        2.81759
         O 39 -- O 54             -0.03        2.81768
         O 35 -- O 42             -0.03        2.81794
         O 14 -- O 29             -0.03        2.81879
         O 52 -- O 56             -0.03        2.81894
         O 9  -- O 24             -0.03        2.81942
         O 9  -- O 30             -0.03        2.81960
         O 14 -- O 52             -0.03        2.82026
         O 41 -- O 49             -0.03        2.82029
         O 34 -- O 39             -0.03        2.82033
         O 14 -- O 28             -0.03        2.82059
         O 13 -- O 25             -0.03        2.82088
         O 25 -- O 39             -0.03        2.82120
         O 40 -- O 53             -0.03        2.82134
         O 29 -- O 46             -0.03        2.82135
         O 38 -- O 42             -0.03        2.82229
         O 30 -- O 42             -0.03        2.82238
         O 42 -- O 50             -0.03        2.82313
         O 15 -- O 32             -0.03        2.82318
         O 16 -- O 31             -0.03        2.82371
         O 45 -- O 54             -0.03        2.82371
         O 54 -- O 56             -0.03        2.82373
         O 10 -- O 24             -0.03        2.82425
         O 37 -- O 39             -0.03        2.82469
         O 48 -- O 50             -0.03        2.82473
         O 46 -- O 49             -0.03        2.82478
         O 47 -- O 51             -0.03        2.82501
         O 10 -- O 31             -0.03        2.82508
         O 14 -- O 30             -0.03        2.82535
         O 24 -- O 44             -0.03        2.82606
         O 15 -- O 33             -0.03        2.82615
         O 11 -- O 32             -0.03        2.82646
         O 47 -- O 49             -0.03        2.82654
         O 37 -- O 41             -0.03        2.82686
         O 17 -- O 25             -0.03        2.82760
         O 16 -- O 51             -0.03        2.82922
         O 18 -- O 25             -0.03        2.83047
         O 33 -- O 40             -0.03        2.83153
         O 51 -- O 55             -0.03        2.83183
         O 35 -- O 43             -0.03        2.83284
         O 20 -- O 28             -0.03        2.83362
         O 11 -- O 21             -0.03        2.83451
         O 46 -- O 53             -0.03        2.83525
============================================================
 

Writing analysis data to 036.castep_bin

Writing model to 036.check
 
 A BibTeX formatted list of references used in this run has been written to 
 036.bib
 
Initialisation time =     55.48 s
Calculation time    =  33347.36 s
Finalisation time   =     94.49 s
Total time          =  33497.33 s
Peak Memory Use     = 2840084 kB
  
Overall parallel efficiency rating: Good (79%)                                  
  
Data was distributed by:-
G-vector (4-way); efficiency rating: Good (79%)                                 
k-point (14-way); efficiency rating: Excellent (99%)                            
