 +-------------------------------------------------+
 |                                                 |
 |      CCC   AA    SSS  TTTTT  EEEEE  PPPP        |
 |     C     A  A  S       T    E      P   P       |
 |     C     AAAA   SS     T    EEE    PPPP        |
 |     C     A  A     S    T    E      P           |
 |      CCC  A  A  SSS     T    EEEEE  P           |
 |                                                 |
 +-------------------------------------------------+
 |                                                 |
 | Welcome to Academic Release CASTEP version 16.11|          
 | Ab Initio Total Energy Program                  |
 |                                                 |
 | Authors:                                        |
 | M. Segall, M. Probert, C. Pickard, P. Hasnip,   |
 | S. Clark, K. Refson, J. R. Yates, M. Payne      |
 |                                                 |
 | Contributors:                                   |
 | P. Lindan, P. Haynes, J. White, V. Milman,      |
 | N. Govind, M. Gibson, P. Tulip, V. Cocula,      |
 | B. Montanari, D. Quigley, M. Glover,            |
 | L. Bernasconi, A. Perlov, M. Plummer,           |
 | E. McNellis, J. Meyer, J. Gale, D. Jochym       |
 | J. Aarons, B. Walker, R. Gillen, D. Jones       |
 | T. Green, I. J. Bush, C. J. Armstrong,          |
 | E. J. Higgins, E. L. Brown, M. S. McFly         |
 |                                                 |
 | Copyright (c) 2000 - 2015                       |
 |                                                 |
 |     Distributed under the terms of an           |
 |     Agreement between the United Kingdom        |
 |     Car-Parrinello (UKCP) Consortium,           |
 |     Daresbury Laboratory and Accelrys, Inc.     |
 |                                                 |
 | Please cite                                     |
 |                                                 |
 |     "First principles methods using CASTEP"     |
 |                                                 |
 |         Zeitschrift fuer Kristallographie       |
 |           220(5-6) pp. 567-570 (2005)           |
 |                                                 |
 | S. J. Clark, M. D. Segall, C. J. Pickard,       |
 | P. J. Hasnip, M. J. Probert, K. Refson,         |
 | M. C. Payne                                     |
 |                                                 |
 |       in all publications arising from          |
 |              your use of CASTEP                 |
 |                                                 |
 +-------------------------------------------------+
 
 
 Compiled for linux_x86_64_ifort16 on Sat, 23 Jul 2016 23:44:54 +0100
 from code version 
 203e84763863+ Castep161_branch Fri, 04 Mar 2016 19:21:07 +0000
 Compiler: Intel Fortran 16.0.3.210; Optimisation: fast
 MATHLIBS: Intel MKL(11.3.3) (LAPACK version 3.6.0)
 FFT Lib : mkl
 Fundamental constants values: CODATA 2010
 
 Run started: Tue, 13 Mar 2018 17:03:50 +0000
 +-------------------------------------------------+
 |                                                 |
 |           N   N    M   M    RRRR                |
 |           NN  N    MM MM    R   R               |
 |           N N N    M M M    RRRR                |
 |           N  NN    M   M    R  R                |
 |           N   N    M   M    R   R               |
 |                                                 |
 +-------------------------------------------------+
 |                                                 |
 | Welcome to Materials Studio CASTEP-NMR          |
 |                                                 |
 | Authors:                                        |
 | J.R. Yates, C.J. Pickard, F. Mauri              |
 |                                                 |
 | Contributors:                                   |
 | T.F.G. Green, S.A. Joyce                        |
 |                                                 |
 | Copyright (c) 2004 - 2015                       |
 |                                                 |
 | Please cite the appropriate publications in all |
 | work arising from your use of CASTEP NMR.       |
 |                                                 |
 | For NMR Shielding Tensors cite:                 |
 |    "All-electron magnetic response with         |
 |    pseudopotentials: NMR chemical shifts",      |
 |    C. J. Pickard, F. Mauri;                     |
 |    Physical Review B63 245101 (2001), and       |
 |                                                 |
 |    "Calculation of NMR Chemical Shifts          |
 |    for extended systems using                   |
 |    Ultrasoft Pseudopotentials",                 |
 |    J. R. Yates, C. J. Pickard and F. Mauri      |
 |    Physical Review B76 024401 (2007)            |
 |                                                 |
 | For Electric Field Gradients cite:              |
 |   "Accurate First Principles Prediction of 17O  |
 |    NMR Parameters in SiO2: Assignment of the    |
 |    Zeolite Ferrierite Spectrum"                 |
 |    M. Profeta, F. Mauri and C. J. Pickard       |
 |    J. Amer. Chem. Soc. 125 541 (2003)           |
 |                                                 |
 | For Spin-Spin (J) Couplings cite:               |
 |   "A first principles theory of NMR J-coupling  |
 |   in solid-state systems"                       |
 |   S.A. Joyce, J.R. Yates, C.J. Pickard, F. Mauri|
 |   J. Chem. Phys. 127 204107 (2007)              |
 |                                                 |
 |   "Relativistic NMR J-coupling with ultrasoft   |
 |   pseudopotentials and the zeroth-order regular |
 |   approximation"                                |
 |   T.F.G. Green and J.R. Yates                   |
 |   J. Chem. Phys. 140 234106 (2014)              |
 |                                                 |
 +-------------------------------------------------+
 
 
 Atomic calculation performed for O: 1s2 2s2 2p4
 
 Converged in 44 iterations to an ae energy of -2040.855 eV
 
 
 Atomic calculation performed for O: 1s2 2s2 2p4
 
 Exceeded max iterations: converged to 0.000000062 eV
 
   ============================================================                
   | Pseudopotential Report - Date of generation 13-03-2018   |                
   ------------------------------------------------------------                
   | Element: O Ionic charge:  6.00 Level of theory: PBE      |                
   | Atomic Solver: ZORA (scalar)                             |                
   |                                                          |                
   |               Reference Electronic Structure             |                
   |         Orbital         Occupation         Energy        |                
   |            2s              2.000           -0.881        |                
   |            2p              4.000           -0.332        |                
   |                                                          |                
   |                 Pseudopotential Definition               |                
   |        Beta     l      e      Rc     scheme   norm       |                
   |          1      0   -0.881   1.100     qc      0         |                
   |          2      0    0.250   1.100     qc      0         |                
   |          3      1   -0.332   1.100     qc      0         |                
   |          4      1    0.250   1.100     qc      0         |                
   |         loc     2    0.000   1.100     pn      0         |                
   |                                                          |                
   | Augmentation charge Rinner = 0.769                       |                
   | Partial core correction Rc = 0.769                       |                
   ------------------------------------------------------------                
   | "2|1.1|15|18|20|20:21(qc=7)"                             |                
   ------------------------------------------------------------                
   |      Author: Chris J. Pickard, Cambridge University      |                
   ============================================================                
 
 Atomic calculation performed for Zr: 1s2 2s2 2p6 3s2 3p6 3d10 4s2 4p6 4d2 5s2
 
 Converged in 53 iterations to an ae energy of -97719.888 eV
 
 
 Atomic calculation performed for Zr: 1s2 2s2 2p6 3s2 3p6 3d10 4s2 4p6 4d2 5s2
 
 Exceeded max iterations: converged to 0.000000970 eV
 
 Warning: ion_atom_descreen_psp: negative charge density encountered
   ============================================================                
   | Pseudopotential Report - Date of generation 13-03-2018   |                
   ------------------------------------------------------------                
   | Element: Zr Ionic charge: 12.00 Level of theory: PBE     |                
   | Atomic Solver: ZORA (scalar)                             |                
   |                                                          |                
   |               Reference Electronic Structure             |                
   |         Orbital         Occupation         Energy        |                
   |            4s              2.000           -2.003        |                
   |            4p              6.000           -1.193        |                
   |            5s              2.000           -0.163        |                
   |            4d              2.000           -0.132        |                
   |                                                          |                
   |                 Pseudopotential Definition               |                
   |        Beta     l      e      Rc     scheme   norm       |                
   |          1      0   -2.003   2.105     qc      0         |                
   |          2      0   -0.163   2.105     qc      0         |                
   |          3      0    0.250   2.105     qc      0         |                
   |          4      1   -1.193   2.105     qc      0         |                
   |          5      1    0.250   2.105     qc      0         |                
   |          6      2   -0.132   2.105     qc      0         |                
   |          7      2    0.250   2.105     qc      0         |                
   |         loc     3    0.000   2.105     pn      0         |                
   |                                                          |                
   | Augmentation charge Rinner = 1.471                       |                
   | Partial core correction Rc = 1.471                       |                
   ------------------------------------------------------------                
   | "3|2.1|7|8|9|40U:50:41:42"                               |                
   ------------------------------------------------------------                
   |      Author: Chris J. Pickard, Cambridge University      |                
   ============================================================                
 
 Atomic calculation performed for Sn:
 1s2 2s2 2p6 3s2 3p6 3d10 4s2 4p6 4d10 5s2 5p2
 
 Converged in 58 iterations to an ae energy of -167539.320 eV
 
 
 Atomic calculation performed for Sn:
 1s2 2s2 2p6 3s2 3p6 3d10 4s2 4p6 4d10 5s2 5p2
 
 Exceeded max iterations: converged to 0.000001154 eV
 
   ============================================================                
   | Pseudopotential Report - Date of generation 13-03-2018   |                
   ------------------------------------------------------------                
   | Element: Sn Ionic charge: 14.00 Level of theory: PBE     |                
   | Atomic Solver: ZORA (scalar)                             |                
   |                                                          |                
   |               Reference Electronic Structure             |                
   |         Orbital         Occupation         Energy        |                
   |            4d             10.000           -0.950        |                
   |            5s              2.000           -0.388        |                
   |            5p              2.000           -0.136        |                
   |                                                          |                
   |                 Pseudopotential Definition               |                
   |        Beta     l      e      Rc     scheme   norm       |                
   |          1      0   -0.388   2.199     qc      0         |                
   |          2      0    0.250   2.199     qc      0         |                
   |          3      1   -0.136   2.199     qc      0         |                
   |          4      1    0.250   2.199     qc      0         |                
   |          5      2   -0.950   2.199     qc      0         |                
   |          6      2    0.250   2.199     qc      0         |                
   |         loc     3    0.000   2.199     pn      0         |                
   |                                                          |                
   | Augmentation charge Rinner = 1.537                       |                
   | Partial core correction Rc = 1.537                       |                
   ------------------------------------------------------------                
   | "3|2.2|7|8|9|50:51:42"                                   |                
   ------------------------------------------------------------                
   |      Author: Chris J. Pickard, Cambridge University      |                
   ============================================================                
 
 Atomic calculation performed for La:
 1s2 2s2 2p6 3s2 3p6 3d10 4s2 4p6 4d10 5s2 5p6 5d1 6s2
 
 Converged in 56 iterations to an ae energy of -230121.495 eV
 
 
 Atomic calculation performed for La:
 1s2 2s2 2p6 3s2 3p6 3d10 4s2 4p6 4d10 5s2 5p6 5d1 6s2
 
 Exceeded max iterations: converged to 0.000000907 eV
 
 Warning: ion_atom_descreen_psp: negative charge density encountered
   ============================================================                
   | Pseudopotential Report - Date of generation 13-03-2018   |                
   ------------------------------------------------------------                
   | Element: La Ionic charge: 11.00 Level of theory: PBE     |                
   | Atomic Solver: ZORA (scalar)                             |                
   |                                                          |                
   |               Reference Electronic Structure             |                
   |         Orbital         Occupation         Energy        |                
   |            5s              2.000           -1.430        |                
   |            5p              6.000           -0.823        |                
   |            6s              2.000           -0.135        |                
   |            5d              1.000           -0.114        |                
   |                                                          |                
   |                 Pseudopotential Definition               |                
   |        Beta     l      e      Rc     scheme   norm       |                
   |          1      0   -1.430   2.298     qc      0         |                
   |          2      0   -0.135   2.298     qc      0         |                
   |          3      0    0.250   2.298     qc      0         |                
   |          4      1   -0.823   2.298     qc      0         |                
   |          5      1    0.250   2.298     qc      0         |                
   |          6      2   -0.114   2.298     qc      0         |                
   |          7      2    0.250   2.298     qc      0         |                
   |         loc     2    0.000   2.298     pn      0         |                
   |                                                          |                
   | Augmentation charge Rinner = 1.606                       |                
   | Partial core correction Rc = 1.606                       |                
   ------------------------------------------------------------                
   | "2|2.3|5|6|7|50U:60:51:52(qc=4.5)"                       |                
   ------------------------------------------------------------                
   |      Author: Chris J. Pickard, Cambridge University      |                
   ============================================================                
 
 Pseudo atomic calculation performed for O 2s2 2p4
 
 Converged in 39 iterations to a total energy of -432.6554 eV
 
 
 Pseudo atomic calculation performed for Zr 4s2 4p6 4d2 5s2
 
 Converged in 38 iterations to a total energy of -1285.4931 eV
 
 
 Pseudo atomic calculation performed for Sn 4d10 5s2 5p2
 
 Converged in 48 iterations to a total energy of -2044.5414 eV
 
 
 Pseudo atomic calculation performed for La 5s2 5p6 5d1 6s2
 
 Converged in 34 iterations to a total energy of -968.0372 eV
 
 Calculation parallelised over 56 processes.
 Data is distributed by G-vector(4-way) and k-point(14-way)

 ************************************ Title ************************************
 nmr testing

 ***************************** General Parameters ******************************
  
 output verbosity                               : normal  (1)
 write checkpoint data to                       : 042.check
 type of calculation                            : Magnetic Resonance
 stress calculation                             : on
 density difference calculation                 : off
 electron localisation func (ELF) calculation   : off
 Hirshfeld analysis                             : off
 unlimited duration calculation
 timing information                             : on
 memory usage estimate                          : on
 write final potential to formatted file        : off
 write final density to formatted file          : off
 write structure in CIF formatted file          : on
 write structure in CELL formatted file         : on
 write BibTeX reference list                    : on
 write OTFG pseudopotential files               : on
 checkpoint writing                             : both castep_bin and check files
  
 output         length unit                     : A
 output           mass unit                     : amu
 output           time unit                     : ps
 output         charge unit                     : e
 output           spin unit                     : hbar/2
 output         energy unit                     : eV
 output          force unit                     : eV/A
 output       velocity unit                     : A/ps
 output       pressure unit                     : GPa
 output     inv_length unit                     : 1/A
 output      frequency unit                     : cm-1
 output force constant unit                     : eV/A**2
 output         volume unit                     : A**3
 output   IR intensity unit                     : (D/A)**2/amu
 output         dipole unit                     : D
 output         efield unit                     : eV/A/e
 output        entropy unit                     : J/mol/K
  
 wavefunctions paging                           : none
 random number generator seed                   : randomised (170353678)
 data distribution                              : optimal for this architecture
 optimization strategy                          : maximize speed(+++)

 *********************** Exchange-Correlation Parameters ***********************
  
 using functional                               : Perdew Burke Ernzerhof
 relativistic treatment                         : ZORA
 DFT+D: Semi-empirical dispersion correction    : off

 ************************* Pseudopotential Parameters **************************
  
 pseudopotential representation                 : reciprocal space
 <beta|phi> representation                      : reciprocal space
 spin-orbit coupling                            : off

 **************************** Basis Set Parameters *****************************
  
 plane wave basis set cut-off                   :   816.3416   eV
 size of standard grid                          :     1.7500
 size of   fine   gmax                          :    25.6161   1/A
 finite basis set correction                    : automatic
 number of sample energies                      :          3
           sample  spacing                      :     5.0000   eV

 **************************** Electronic Parameters ****************************
  
 number of  electrons                           :  716.0    
 net charge of system                           :  0.000    
 treating system as non-spin-polarized
 number of bands                                :        430

 ********************* Electronic Minimization Parameters **********************
  
 Method: Treating system as metallic with density mixing treatment of electrons,
         and number of  SD  steps               :          1
         and number of  CG  steps               :          4
  
 total energy / atom convergence tol.           : 0.1000E-08   eV
 eigen-energy convergence tolerance             : 0.2458E-09   eV
 max force / atom convergence tol.              : ignored
 convergence tolerance window                   :          3   cycles
 max. number of SCF cycles                      :         50
 number of fixed-spin iterations                :         10
 smearing scheme                                : Gaussian
 smearing width                                 : 0.2000       eV
 Fermi energy convergence tolerance             : 0.2721E-13   eV
 periodic dipole correction                     : NONE

 ************************** Density Mixing Parameters **************************
  
 density-mixing scheme                          : Broyden
 max. length of mixing history                  :         20
 charge density mixing amplitude                : 0.8000    
 cut-off energy for mixing                      :  816.3       eV

 *********************** Population Analysis Parameters ************************
  
 Population analysis with cutoff                :  3.000       A

 ************************ Magnetic Resonance Parameters ************************
  
 Magnetic Resonance Property                    : Chemical Shielding + EFG
 Position Operator Method                       : crystal
 max. number of MagRes CG steps                 :        250
 convergence tolerance window                   :          2   cycles
 energy convergence tolerance                   : 0.1000E-11   eV
 band convergence tolerance                     : 0.1000E-08   eV

 *******************************************************************************
  
 
                           -------------------------------
                                      Unit Cell
                           -------------------------------
        Real Lattice(A)                      Reciprocal Lattice(1/A)
  10.9072282   0.0063877   0.0016973        0.5760572  -0.0003374  -0.0000897
   0.0063873  10.9055517   0.0000620       -0.0003374   0.5761458  -0.0000033
   0.0016976   0.0000628  10.9064911       -0.0000896  -0.0000032   0.5760960
 
                       Lattice parameters(A)       Cell Angles
                    a =   10.907230          alpha =   89.999340
                    b =   10.905554          beta  =   89.982166
                    c =   10.906491          gamma =   89.932888
 
                       Current cell volume = 1297.319461       A**3
 
                           -------------------------------
                                     Cell Contents
                           -------------------------------
                         Total number of ions in cell =   88
                      Total number of species in cell =    4
                        Max number of any one species =   56
 
            xxxxxxxxxxxxxxxxxxxxxxxxxxxxxxxxxxxxxxxxxxxxxxxxxxxxxxxxxxxx
            x  Element    Atom        Fractional coordinates of atoms  x
            x            Number           u          v          w      x
            x----------------------------------------------------------x
            x  O            1         0.124600   0.124915   0.124892   x 
            x  O            2         0.625022   0.124877   0.624964   x 
            x  O            3         0.124892   0.625003   0.625297   x 
            x  O            4         0.625008   0.624997   0.124873   x 
            x  O            5         0.874702   0.375041   0.375147   x 
            x  O            6         0.874895   0.875013   0.875027   x 
            x  O            7         0.375009   0.374984   0.874804   x 
            x  O            8         0.374979   0.874770   0.375106   x 
            x  O            9         0.419213   0.125425   0.125440   x 
            x  O           10         0.329079   0.125999   0.624156   x 
            x  O           11         0.828984   0.624149   0.625157   x 
            x  O           12         0.920622   0.625821   0.125051   x 
            x  O           13         0.126135   0.420517   0.125706   x 
            x  O           14         0.623589   0.329233   0.125152   x 
            x  O           15         0.625501   0.830317   0.625531   x 
            x  O           16         0.125300   0.919779   0.624690   x 
            x  O           17         0.126373   0.125431   0.420893   x 
            x  O           18         0.125081   0.624229   0.330601   x 
            x  O           19         0.626090   0.625023   0.828875   x 
            x  O           20         0.624193   0.124889   0.920497   x 
            x  O           21         0.876729   0.670948   0.375128   x 
            x  O           22         0.874263   0.579438   0.874920   x 
            x  O           23         0.375758   0.079112   0.875769   x 
            x  O           24         0.374901   0.169399   0.374545   x 
            x  O           25         0.169427   0.375537   0.375131   x 
            x  O           26         0.078880   0.874157   0.374328   x 
            x  O           27         0.579009   0.875438   0.876242   x 
            x  O           28         0.671100   0.375479   0.874577   x 
            x  O           29         0.874917   0.375197   0.080187   x 
            x  O           30         0.374899   0.374772   0.169498   x 
            x  O           31         0.375422   0.875626   0.669870   x 
            x  O           32         0.875399   0.874755   0.580468   x 
            x  O           33         0.669815   0.875378   0.375066   x 
            x  O           34         0.080102   0.374986   0.874919   x 
            x  O           35         0.375727   0.669739   0.875723   x 
            x  O           36         0.874923   0.080253   0.375069   x 
            x  O           37         0.874882   0.375942   0.671213   x 
            x  O           38         0.375126   0.876233   0.079099   x 
            x  O           39         0.125043   0.328941   0.623136   x 
            x  O           40         0.624955   0.920676   0.124142   x 
            x  O           41         0.919624   0.125266   0.624728   x 
            x  O           42         0.329381   0.624076   0.125607   x 
            x  O           43         0.124673   0.625360   0.919343   x 
            x  O           44         0.623869   0.125642   0.329459   x 
            x  O           45         0.419637   0.625174   0.624727   x 
            x  O           46         0.830519   0.124452   0.124638   x 
            x  O           47         0.125385   0.125208   0.830133   x 
            x  O           48         0.625306   0.624776   0.419778   x 
            x  O           49         0.874635   0.169368   0.874713   x 
            x  O           50         0.374088   0.579952   0.374673   x 
            x  O           51         0.169500   0.875128   0.875241   x 
            x  O           52         0.579667   0.374226   0.374800   x 
            x  O           53         0.875271   0.873809   0.170832   x 
            x  O           54         0.374985   0.374329   0.579810   x 
            x  O           55         0.124894   0.829173   0.125785   x 
            x  O           56         0.625431   0.420748   0.625544   x 
            x  Zr           1         0.499796   0.499874   0.499810   x 
            x  Zr           2         0.249661   0.749709  -0.000000   x 
            x  Zr           3         0.749927   0.000159   0.249549   x 
            x  Zr           4         0.000037   0.249851   0.749487   x 
            x  Zr           5         0.749759   0.249435   0.000131   x 
            x  Zr           6         0.250249   0.000120   0.749902   x 
            x  Zr           7         0.750706   0.750270   0.500151   x 
            x  Zr           8         0.000318   0.500269  -0.000017   x 
            x  Zr           9         0.500274   0.750602   0.750315   x 
            x  Zr          10         0.000180   0.999968   0.500061   x 
            x  Sn           1         0.000823   0.749110   0.249559   x 
            x  Sn           2         0.500408   0.000874   0.000817   x 
            x  Sn           3         0.251133   0.251111   0.498656   x 
            x  Sn           4         0.750127   0.500119   0.750107   x 
            x  Sn           5         0.250469   0.499446   0.250592   x 
            x  Sn           6         0.499237   0.250419   0.250440   x 
            x  La           1         0.999901   0.000267   0.999618   x 
            x  La           2         0.750092   0.249547   0.499796   x 
            x  La           3         0.250091   0.500365   0.750256   x 
            x  La           4         0.500392   0.749881   0.250513   x 
            x  La           5         0.250296   0.750045   0.500643   x 
            x  La           6         0.749746   0.499754   0.249950   x 
            x  La           7         0.500045   0.250091   0.749836   x 
            x  La           8         0.999855   0.499997   0.500213   x 
            x  La           9         0.750106   0.750056   0.000115   x 
            x  La          10         0.249723   0.999622   0.249833   x 
            x  La          11         0.249267   0.250010   0.999393   x 
            x  La          12         0.750362   0.000051   0.749713   x 
            x  La          13         0.500270   0.999385   0.500177   x 
            x  La          14         0.000486   0.750468   0.750197   x 
            x  La          15         0.999165   0.249758   0.249619   x 
            x  La          16         0.499691   0.500258   0.999868   x 
            xxxxxxxxxxxxxxxxxxxxxxxxxxxxxxxxxxxxxxxxxxxxxxxxxxxxxxxxxxxx
 
 
                         No user defined ionic velocities
 
                           -------------------------------
                                   Details of Species
                           -------------------------------
 
                               Mass of species in AMU
                                    O   15.9994000
                                    Zr   91.2240000
                                    Sn  118.7100000
                                    La  138.9055000
 
                          Electric Quadrupole Moment (Barn)
                                    O   -0.0255800 Isotope 17
                                    Zr   -0.1760000 Isotope 91
                                    Sn    1.0000000 No Isotope Defined
                                    La    0.2000000 Isotope139
 
                          Files used for pseudopotentials:
                                    O 2|1.1|15|18|20|20:21(qc=7)
                                    Zr 3|2.1|7|8|9|40U:50:41:42
                                    Sn 3|2.2|7|8|9|50:51:42
                                    La 2|2.3|5|6|7|50U:60:51:52(qc=4.5)
 
                           -------------------------------
                              k-Points For BZ Sampling
                           -------------------------------
                       MP grid size for SCF calculation is  3  3  3
                            with an offset of   0.000  0.000  0.000
                       Number of kpoints used =            14
 
                           -------------------------------
                               Symmetry and Constraints
                           -------------------------------
 
                      Maximum deviation from symmetry =  0.00000         ANG
 
         There are no symmetry operations specified or generated for this cell
                      Number of ionic constraints     =           3
                      Point group of crystal =     1: C1, 1, 1
                      Space group of crystal =     1: P1, P 1
 
 
                         Centre of mass is constrained
             Set iprint > 1 for details of linear ionic constraints
 
                         Number of cell constraints= 0
                         Cell constraints are:  1 2 3 4 5 6
 
                         External pressure/stress (GPa)
                          0.00000   0.00000   0.00000
                                    0.00000   0.00000
                                              0.00000
  
+---------------- MEMORY AND SCRATCH DISK ESTIMATES PER PROCESS --------------+
|                                                     Memory          Disk    |
| Baseline code, static data and system overhead      322.0 MB         0.0 MB |
| BLAS internal memory storage                          0.0 MB         0.0 MB |
| Model and support data                             1319.9 MB         0.0 MB |
| Electronic energy minimisation requirements         380.8 MB         0.0 MB |
| Force calculation requirements                       24.1 MB         0.0 MB |
| Stress calculation requirements                      28.3 MB         0.0 MB |
|                                               ----------------------------- |
| Approx. total storage required per process         2022.7 MB         0.0 MB |
|                                                                             |
| Requirements will fluctuate during execution and may exceed these estimates |
+-----------------------------------------------------------------------------+
Calculating finite basis set correction with  3 cut-off energies.
Calculating total energy with cut-off of  806.342eV.
------------------------------------------------------------------------ <-- SCF
SCF loop      Energy           Fermi           Energy gain       Timer   <-- SCF
                               energy          per atom          (sec)   <-- SCF
------------------------------------------------------------------------ <-- SCF
Initial  -5.43752979E+004  0.00000000E+000                        76.32  <-- SCF
      1  -6.30296933E+004  7.61994608E+000   9.83454019E+001     215.98  <-- SCF
      2  -6.55942352E+004  7.34748813E+000   2.91425216E+001     311.73  <-- SCF
      3  -6.56722354E+004  6.85113961E+000   8.86366235E-001     417.05  <-- SCF
      4  -6.56682118E+004  7.73602546E+000  -4.57228901E-002     547.77  <-- SCF
      5  -6.55600881E+004  7.34097435E+000  -1.22867833E+000     680.38  <-- SCF
      6  -6.55617176E+004  7.24289383E+000   1.85164924E-002     840.78  <-- SCF
      7  -6.55614623E+004  7.32058928E+000  -2.90149343E-003     976.82  <-- SCF
      8  -6.55615220E+004  7.32310986E+000   6.78977324E-004    1146.94  <-- SCF
      9  -6.55615417E+004  7.32359406E+000   2.23932831E-004    1295.09  <-- SCF
     10  -6.55615432E+004  7.32030961E+000   1.65483802E-005    1437.86  <-- SCF
     11  -6.55615425E+004  7.32226041E+000  -8.05751862E-006    1581.11  <-- SCF
     12  -6.55615428E+004  7.32234248E+000   3.71722823E-006    1737.44  <-- SCF
     13  -6.55615428E+004  7.32201536E+000   4.45168445E-007    1873.24  <-- SCF
     14  -6.55615428E+004  7.32181937E+000  -1.78180715E-007    2004.08  <-- SCF
     15  -6.55615428E+004  7.32149343E+000  -4.28266269E-008    2147.05  <-- SCF
     16  -6.55615428E+004  7.32129739E+000  -5.48153601E-009    2272.21  <-- SCF
     17  -6.55615428E+004  7.32121907E+000  -3.43808823E-010    2391.44  <-- SCF
     18  -6.55615428E+004  7.32116863E+000  -3.89790617E-010    2488.61  <-- SCF
------------------------------------------------------------------------ <-- SCF
 
Final energy, E             =  -65561.54280097     eV
Final free energy (E-TS)    =  -65561.54280097     eV
(energies not corrected for finite basis set)
 
NB est. 0K energy (E-0.5TS)      =  -65561.54280097     eV
 
Calculating total energy with cut-off of  811.342eV.
------------------------------------------------------------------------ <-- SCF
SCF loop      Energy           Fermi           Energy gain       Timer   <-- SCF
                               energy          per atom          (sec)   <-- SCF
------------------------------------------------------------------------ <-- SCF
Initial  -6.55615428E+004  0.00000000E+000                      2524.22  <-- SCF
      1  -6.55615453E+004  7.32104288E+000   2.80218528E-005    2635.32  <-- SCF
      2  -6.55615453E+004  7.32104288E+000   4.14257993E-010    2739.57  <-- SCF
      3  -6.55615453E+004  7.32108245E+000   1.65431806E-008    2855.68  <-- SCF
      4  -6.55615453E+004  7.32109009E+000  -1.92743867E-009    2962.95  <-- SCF
      5  -6.55615453E+004  7.32110366E+000  -2.55782515E-010    3050.12  <-- SCF
      6  -6.55615453E+004  7.32112020E+000  -7.83237278E-011    3137.88  <-- SCF
------------------------------------------------------------------------ <-- SCF
 
Final energy, E             =  -65561.54526812     eV
Final free energy (E-TS)    =  -65561.54526812     eV
(energies not corrected for finite basis set)
 
NB est. 0K energy (E-0.5TS)      =  -65561.54526812     eV
 
Calculating total energy with cut-off of  816.342eV.
------------------------------------------------------------------------ <-- SCF
SCF loop      Energy           Fermi           Energy gain       Timer   <-- SCF
                               energy          per atom          (sec)   <-- SCF
------------------------------------------------------------------------ <-- SCF
Initial  -6.55615453E+004  0.00000000E+000                      3173.50  <-- SCF
      1  -6.55615482E+004  7.32116361E+000   3.28767214E-005    3287.04  <-- SCF
      2  -6.55615482E+004  7.32116361E+000   2.12753681E-010    3382.03  <-- SCF
      3  -6.55615482E+004  7.32114369E+000   2.01642117E-008    3469.88  <-- SCF
      4  -6.55615482E+004  7.32114060E+000   6.06903428E-010    3558.60  <-- SCF
      5  -6.55615482E+004  7.32113450E+000  -1.39632786E-010    3646.29  <-- SCF
------------------------------------------------------------------------ <-- SCF
 
Final energy, E             =  -65561.54816309     eV
Final free energy (E-TS)    =  -65561.54816309     eV
(energies not corrected for finite basis set)
 
NB est. 0K energy (E-0.5TS)      =  -65561.54816309     eV
 
 For future reference: finite basis dEtot/dlog(Ecut) =      -0.437404eV
 Total energy corrected for finite basis set =  -65561.548162 eV
 
  =====================================================================
  +       Calculation of Nuclear Magnetic Resonance Parameters        +
  + ================================================================= +
 
  Starting Calculation of Electric Field Gradient Tensors         |<-- EFG
  +---------------- MEMORY AND SCRATCH DISK ESTIMATES PER PROCESS --------------+
  |                                                     Memory          Disk    |
  | Model and support data                             1317.6 MB         0.0 MB |
  | NMR EFG calculation requirements                    366.5 MB         0.0 MB |
  |                                               ----------------------------- |
  | Approx. total storage required per process         1684.1 MB         0.0 MB |
  |                                                                             |
  | Requirements will fluctuate during execution and may exceed these estimates |
  +-----------------------------------------------------------------------------+
  Total Time for EFG Tensors                     441.01 sec       |<-- EFG
 
  Starting Calculation of Chemical Shielding Tensors              |<-- NMR
  +---------------- MEMORY AND SCRATCH DISK ESTIMATES PER PROCESS --------------+
  |                                                     Memory          Disk    |
  | Model and support data                             1317.6 MB         0.0 MB |
  | NMR chemical shift calculation requirements         562.8 MB         0.0 MB |
  |                                               ----------------------------- |
  | Approx. total storage required per process         1880.4 MB         0.0 MB |
  |                                                                             |
  | Requirements will fluctuate during execution and may exceed these estimates |
  +-----------------------------------------------------------------------------+
  Starting k-point:   1 of   1                                    |<-- NMR
  Total Time for step 1 of 6:                   3300.30 sec       |<-- NMR
  Total Time for step 2 of 6:                   3275.16 sec       |<-- NMR
  Total Time for step 3 of 6:                   3265.89 sec       |<-- NMR
  Total Time for step 4 of 6:                   3274.41 sec       |<-- NMR
  Total Time for step 5 of 6:                   3275.57 sec       |<-- NMR
  Total Time for step 6 of 6:                   3267.69 sec       |<-- NMR
  Total Time for Chemical Shielding Tensors    28964.97 sec       |<-- NMR
 
  ========================================================================
  |           Chemical Shielding and Electric Field Gradient Tensors     |
  |----------------------------------------------------------------------|
  |     Nucleus                Shielding tensor             EFG Tensor   |
  |  Species       Ion    Iso(ppm)   Aniso(ppm)  Asym    Cq(MHz)    Eta  |
  |    O           1     -318.44      -7.49      0.39   3.943E-02   0.27 |
  |    O           2     -316.71       9.51      0.61   1.937E-02   0.94 |
  |    O           3     -317.28       8.06      0.43   3.755E-02   0.08 |
  |    O           4     -316.25      -8.36      0.57   5.801E-02   0.11 |
  |    O           5     -316.45      -9.80      0.89   4.774E-02   0.56 |
  |    O           6     -316.29       3.18      0.96   1.607E-02   0.67 |
  |    O           7     -316.37       8.36      0.84   2.992E-02   0.82 |
  |    O           8     -317.23       9.39      0.90   3.466E-02   0.58 |
  |    O           9       -4.35      67.71      0.69   3.840E+00   0.87 |
  |    O          10      -87.46      86.68      0.22  -3.134E+00   0.11 |
  |    O          11      -85.74      95.93      0.25  -3.158E+00   0.11 |
  |    O          12      -87.28      93.95      0.27  -3.202E+00   0.11 |
  |    O          13      -88.55      78.23      0.09  -3.248E+00   0.09 |
  |    O          14      -87.58      85.46      0.13  -3.159E+00   0.10 |
  |    O          15     -163.40     156.53      0.79   1.044E+00   0.91 |
  |    O          16     -164.01     156.17      0.80   1.048E+00   0.91 |
  |    O          17      -85.24      86.81      0.09  -3.152E+00   0.08 |
  |    O          18       -5.62      68.95      0.57   3.879E+00   0.84 |
  |    O          19      -84.33      93.87      0.27  -3.184E+00   0.11 |
  |    O          20      -88.96      94.82      0.18  -3.200E+00   0.11 |
  |    O          21      -83.16      88.24      0.15  -3.159E+00   0.09 |
  |    O          22      -86.84      92.13      0.23  -3.177E+00   0.11 |
  |    O          23      -84.25      85.79      0.26  -3.170E+00   0.10 |
  |    O          24      -11.38      57.56      0.49   3.916E+00   0.83 |
  |    O          25      -10.76      59.19      0.51   3.913E+00   0.82 |
  |    O          26      -84.50      87.49      0.19  -3.162E+00   0.10 |
  |    O          27      -89.56      97.11      0.24  -3.118E+00   0.12 |
  |    O          28      -84.43      90.89      0.36  -3.125E+00   0.09 |
  |    O          29     -160.93     144.74      0.83   1.066E+00   0.73 |
  |    O          30      -13.40      59.55      0.46   3.910E+00   0.83 |
  |    O          31     -163.22     158.66      0.79   1.084E+00   0.86 |
  |    O          32     -164.33     157.87      0.80   1.040E+00   0.92 |
  |    O          33     -162.75     147.66      0.81   1.079E+00   0.80 |
  |    O          34     -161.66     153.71      0.81   1.075E+00   0.79 |
  |    O          35     -161.25     151.61      0.83   1.078E+00   0.80 |
  |    O          36     -161.34     151.52      0.82   1.072E+00   0.79 |
  |    O          37      -85.32      95.95      0.24  -3.181E+00   0.11 |
  |    O          38      -83.43      80.75      0.28  -3.121E+00   0.08 |
  |    O          39      -86.20      87.07      0.13  -3.129E+00   0.10 |
  |    O          40      -88.75      94.85      0.22  -3.211E+00   0.11 |
  |    O          41     -163.66     156.31      0.81   1.059E+00   0.89 |
  |    O          42      -87.29      85.62      0.20  -3.167E+00   0.10 |
  |    O          43     -164.92     156.74      0.84   1.038E+00   0.90 |
  |    O          44      -90.41      77.19      0.24  -3.236E+00   0.12 |
  |    O          45     -164.75     150.92      0.78   1.043E+00   0.82 |
  |    O          46     -164.16     157.46      0.84   1.066E+00   0.86 |
  |    O          47     -163.37     155.57      0.80   1.076E+00   0.87 |
  |    O          48     -161.62     145.05      0.83   1.064E+00   0.74 |
  |    O          49     -164.18     155.26      0.79   1.015E+00   0.93 |
  |    O          50      -90.45      77.57      0.18  -3.269E+00   0.11 |
  |    O          51     -164.81     154.65      0.80   1.024E+00   0.93 |
  |    O          52      -91.22      91.91      0.25  -3.167E+00   0.11 |
  |    O          53      -90.25      93.36      0.26  -3.147E+00   0.11 |
  |    O          54      -90.49      90.71      0.19  -3.212E+00   0.11 |
  |    O          55      -87.84      94.42      0.21  -3.206E+00   0.10 |
  |    O          56      -87.85      90.80      0.31  -3.135E+00   0.08 |
  |    Zr          1     1613.17    -119.55      0.12  -3.714E+01   0.07 |
  |    Zr          2     1626.55    -128.43      0.22  -3.791E+01   0.04 |
  |    Zr          3     1627.14    -125.98      0.08  -3.812E+01   0.12 |
  |    Zr          4     1632.22    -126.51      0.11  -3.906E+01   0.09 |
  |    Zr          5     1626.21    -125.30      0.15  -3.792E+01   0.03 |
  |    Zr          6     1632.62    -127.81      0.20  -3.902E+01   0.13 |
  |    Zr          7     1632.59    -124.52      0.06  -3.893E+01   0.04 |
  |    Zr          8     1627.68    -125.45      0.15  -3.801E+01   0.11 |
  |    Zr          9     1632.32    -124.80      0.09  -3.911E+01   0.06 |
  |    Zr         10     1634.07    -127.12      0.16  -3.876E+01   0.10 |
  |    Sn          1     3251.29     -49.09      0.03   1.292E+02   0.10 |
  |    Sn          2     3252.18     -48.76      0.10   1.286E+02   0.11 |
  |    Sn          3     3248.96     -49.52      0.46   1.261E+02   0.05 |
  |    Sn          4     3245.46     -35.90      0.25   1.302E+02   0.09 |
  |    Sn          5     3255.93     -59.41      0.25   1.262E+02   0.14 |
  |    Sn          6     3254.53     -60.52      0.44   1.261E+02   0.05 |
  |    La          1     4750.91     868.26      0.03  -8.436E+01   0.04 |
  |    La          2     4704.47     765.00      0.04  -8.268E+01   0.05 |
  |    La          3     4753.47     863.54      0.03  -8.631E+01   0.07 |
  |    La          4     4708.83     757.65      0.04  -8.423E+01   0.08 |
  |    La          5     4703.01     749.01      0.03  -8.135E+01   0.08 |
  |    La          6     4710.16     773.90      0.10  -8.412E+01   0.12 |
  |    La          7     4659.79     659.47      0.01  -8.158E+01   0.04 |
  |    La          8     4604.85     535.93      0.08  -7.566E+01   0.10 |
  |    La          9     4654.00     662.43      0.00  -7.967E+01   0.01 |
  |    La         10     4611.24     525.75      0.07  -7.707E+01   0.10 |
  |    La         11     4655.41     620.55      0.01  -7.822E+01   0.03 |
  |    La         12     4752.70     871.84      0.03  -8.468E+01   0.04 |
  |    La         13     4704.62     751.74      0.03  -8.111E+01   0.09 |
  |    La         14     4752.51     875.38      0.04  -8.519E+01   0.04 |
  |    La         15     4707.94     745.98      0.04  -8.327E+01   0.10 |
  |    La         16     4658.94     658.22      0.09  -7.935E+01   0.12 |
  ========================================================================
 
 *********************** Forces ***********************
 *                                                    *
 *            Cartesian components (eV/A)             *
 * -------------------------------------------------- *
 *                   x            y            z      *
 *                                                    *
 * O         1     -0.00739     -0.00011     -0.01351 *
 * O         2      0.00772     -0.00635     -0.00561 *
 * O         3      0.00466      0.00675      0.00117 *
 * O         4      0.00185      0.00058     -0.00310 *
 * O         5     -0.00178     -0.00383      0.00314 *
 * O         6      0.00468      0.00639      0.00205 *
 * O         7     -0.00431      0.00622      0.00690 *
 * O         8      0.00551     -0.00097      0.01525 *
 * O         9      0.00134      0.01169      0.00695 *
 * O        10      0.00625      0.01267     -0.00939 *
 * O        11      0.00674     -0.00895      0.01835 *
 * O        12      0.00854      0.01672      0.01343 *
 * O        13      0.01615     -0.00087      0.02108 *
 * O        14     -0.02073     -0.00091      0.01666 *
 * O        15      0.00265     -0.00840      0.00874 *
 * O        16      0.00127      0.01012      0.00819 *
 * O        17      0.01498      0.01683     -0.00566 *
 * O        18      0.00440     -0.00276      0.00392 *
 * O        19      0.01200     -0.00056     -0.00123 *
 * O        20     -0.01245     -0.01812      0.00278 *
 * O        21      0.02206     -0.00391     -0.01804 *
 * O        22     -0.00891      0.00453     -0.00959 *
 * O        23      0.01624      0.00366      0.00617 *
 * O        24      0.01076     -0.00097     -0.00747 *
 * O        25      0.00136      0.00637     -0.00952 *
 * O        26      0.00113     -0.01923     -0.01562 *
 * O        27      0.00461      0.01480      0.01073 *
 * O        28      0.00069      0.00888     -0.00862 *
 * O        29     -0.00559     -0.00512     -0.00449 *
 * O        30     -0.00021     -0.00564      0.00184 *
 * O        31      0.00211     -0.00003      0.01138 *
 * O        32      0.00420      0.00245     -0.00170 *
 * O        33      0.01559      0.01012     -0.00379 *
 * O        34     -0.00721     -0.00087     -0.00635 *
 * O        35     -0.00422      0.00819     -0.00325 *
 * O        36     -0.01338     -0.00738     -0.00538 *
 * O        37     -0.01147      0.00899      0.00165 *
 * O        38      0.01496      0.00250      0.00339 *
 * O        39      0.01358      0.00656     -0.01127 *
 * O        40     -0.00605      0.00913     -0.01328 *
 * O        41      0.00627     -0.00132      0.00626 *
 * O        42     -0.00041     -0.01178      0.02341 *
 * O        43     -0.00638     -0.00103      0.01046 *
 * O        44     -0.01331      0.01253     -0.00374 *
 * O        45      0.00690      0.00475      0.00474 *
 * O        46     -0.01207     -0.01077     -0.00414 *
 * O        47     -0.00724     -0.00641     -0.01418 *
 * O        48      0.00108     -0.00209      0.00566 *
 * O        49     -0.00021      0.00737     -0.00414 *
 * O        50     -0.01715     -0.00579     -0.01581 *
 * O        51      0.00970      0.00025     -0.00144 *
 * O        52     -0.00658     -0.01749     -0.00971 *
 * O        53      0.00853     -0.00802     -0.00006 *
 * O        54     -0.01164     -0.00651     -0.00821 *
 * O        55     -0.02132     -0.00360      0.01026 *
 * O        56      0.01195     -0.00230      0.00704 *
 * Zr        1      0.01327      0.00632      0.00498 *
 * Zr        2      0.00329     -0.00543      0.02333 *
 * Zr        3     -0.00155     -0.00945      0.00349 *
 * Zr        4      0.00879      0.00576     -0.00401 *
 * Zr        5     -0.00466      0.00669     -0.00778 *
 * Zr        6      0.00040      0.02230     -0.00376 *
 * Zr        7     -0.00489     -0.00480     -0.01148 *
 * Zr        8     -0.01745     -0.01584      0.00847 *
 * Zr        9      0.00978     -0.00022      0.00963 *
 * Zr       10      0.02219      0.00964     -0.03258 *
 * Sn        1     -0.00138      0.00497      0.00718 *
 * Sn        2     -0.02345     -0.00941      0.00133 *
 * Sn        3     -0.00988     -0.01471      0.00779 *
 * Sn        4     -0.00712     -0.00219      0.00056 *
 * Sn        5     -0.00275      0.00405     -0.00411 *
 * Sn        6     -0.00204      0.00045     -0.00519 *
 * La        1      0.00504     -0.01058      0.00972 *
 * La        2     -0.01395      0.01393     -0.00125 *
 * La        3      0.00111     -0.01490     -0.01627 *
 * La        4     -0.01590      0.00212     -0.00971 *
 * La        5     -0.01285     -0.00921     -0.02127 *
 * La        6      0.00198      0.00106      0.00162 *
 * La        7     -0.00272      0.00093      0.00124 *
 * La        8     -0.00098      0.00203      0.00213 *
 * La        9      0.00088     -0.00482     -0.00517 *
 * La       10     -0.00057      0.00082      0.00239 *
 * La       11      0.01290     -0.00293      0.01169 *
 * La       12     -0.01770     -0.00258      0.01538 *
 * La       13     -0.00655      0.01645     -0.01145 *
 * La       14     -0.01451     -0.01648     -0.00221 *
 * La       15      0.02354      0.00847      0.01343 *
 * La       16      0.00729     -0.00937     -0.00140 *
 *                                                    *
 ******************************************************
 
 ***************** Stress Tensor *****************
 *                                               *
 *          Cartesian components (GPa)           *
 * --------------------------------------------- *
 *             x             y             z     *
 *                                               *
 *  x      0.028397      0.047210      0.002135  *
 *  y      0.047210      0.024746     -0.004578  *
 *  z      0.002135     -0.004578      0.015132  *
 *                                               *
 *  Pressure:   -0.0228                          *
 *                                               *
 *************************************************
 
 Pseudo atomic calculation performed for O 2s2 2p4
 
 Converged in 39 iterations to a total energy of -432.6554 eV
 
 
 Pseudo atomic calculation performed for Zr 4s2 4p6 4d2 5s2
 
 Converged in 38 iterations to a total energy of -1285.4931 eV
 
 
 Pseudo atomic calculation performed for Sn 4d10 5s2 5p2
 
 Converged in 48 iterations to a total energy of -2044.5414 eV
 
 
 Pseudo atomic calculation performed for La 5s2 5p6 5d1 6s2
 
 Converged in 34 iterations to a total energy of -968.0372 eV
 
Charge spilling parameter for spin component 1 = 0.23%
 
     Atomic Populations (Mulliken)
     -----------------------------
Species   Ion     s      p      d      f     Total  Charge (e)
==============================================================
  O        1     1.87   5.00   0.00   0.00   6.87    -0.87
  O        2     1.87   5.00   0.00   0.00   6.87    -0.87
  O        3     1.87   5.00   0.00   0.00   6.87    -0.87
  O        4     1.87   5.00   0.00   0.00   6.87    -0.87
  O        5     1.87   5.00   0.00   0.00   6.87    -0.87
  O        6     1.87   5.00   0.00   0.00   6.87    -0.87
  O        7     1.87   5.00   0.00   0.00   6.87    -0.87
  O        8     1.87   5.00   0.00   0.00   6.87    -0.87
  O        9     1.88   5.02   0.00   0.00   6.91    -0.91
  O       10     1.87   4.98   0.00   0.00   6.85    -0.85
  O       11     1.87   4.99   0.00   0.00   6.85    -0.85
  O       12     1.87   4.99   0.00   0.00   6.85    -0.85
  O       13     1.87   4.99   0.00   0.00   6.85    -0.85
  O       14     1.87   4.99   0.00   0.00   6.85    -0.85
  O       15     1.86   4.94   0.00   0.00   6.80    -0.80
  O       16     1.86   4.94   0.00   0.00   6.80    -0.80
  O       17     1.87   4.99   0.00   0.00   6.85    -0.85
  O       18     1.88   5.02   0.00   0.00   6.91    -0.91
  O       19     1.87   4.99   0.00   0.00   6.85    -0.85
  O       20     1.87   4.99   0.00   0.00   6.85    -0.85
  O       21     1.87   4.99   0.00   0.00   6.85    -0.85
  O       22     1.87   4.98   0.00   0.00   6.85    -0.85
  O       23     1.87   4.99   0.00   0.00   6.85    -0.85
  O       24     1.88   5.02   0.00   0.00   6.91    -0.91
  O       25     1.88   5.02   0.00   0.00   6.91    -0.91
  O       26     1.87   4.99   0.00   0.00   6.85    -0.85
  O       27     1.87   4.99   0.00   0.00   6.85    -0.85
  O       28     1.87   4.99   0.00   0.00   6.85    -0.85
  O       29     1.86   4.95   0.00   0.00   6.80    -0.80
  O       30     1.88   5.02   0.00   0.00   6.91    -0.91
  O       31     1.86   4.95   0.00   0.00   6.80    -0.80
  O       32     1.86   4.94   0.00   0.00   6.80    -0.80
  O       33     1.86   4.95   0.00   0.00   6.80    -0.80
  O       34     1.86   4.95   0.00   0.00   6.80    -0.80
  O       35     1.86   4.95   0.00   0.00   6.80    -0.80
  O       36     1.86   4.95   0.00   0.00   6.80    -0.80
  O       37     1.87   4.99   0.00   0.00   6.85    -0.85
  O       38     1.87   4.99   0.00   0.00   6.85    -0.85
  O       39     1.87   4.99   0.00   0.00   6.85    -0.85
  O       40     1.87   4.99   0.00   0.00   6.85    -0.85
  O       41     1.86   4.94   0.00   0.00   6.80    -0.80
  O       42     1.87   4.99   0.00   0.00   6.86    -0.86
  O       43     1.86   4.95   0.00   0.00   6.80    -0.80
  O       44     1.87   4.99   0.00   0.00   6.85    -0.85
  O       45     1.86   4.94   0.00   0.00   6.80    -0.80
  O       46     1.86   4.95   0.00   0.00   6.80    -0.80
  O       47     1.86   4.95   0.00   0.00   6.80    -0.80
  O       48     1.86   4.95   0.00   0.00   6.80    -0.80
  O       49     1.86   4.94   0.00   0.00   6.80    -0.80
  O       50     1.87   4.99   0.00   0.00   6.86    -0.86
  O       51     1.86   4.94   0.00   0.00   6.80    -0.80
  O       52     1.87   4.99   0.00   0.00   6.86    -0.86
  O       53     1.87   4.98   0.00   0.00   6.85    -0.85
  O       54     1.87   4.99   0.00   0.00   6.86    -0.86
  O       55     1.87   4.99   0.00   0.00   6.86    -0.86
  O       56     1.87   4.98   0.00   0.00   6.85    -0.85
  Zr       1     2.37   6.50   1.92   0.00  10.79     1.21
  Zr       2     2.37   6.49   1.92   0.00  10.78     1.22
  Zr       3     2.38   6.49   1.92   0.00  10.79     1.21
  Zr       4     2.37   6.48   1.93   0.00  10.78     1.22
  Zr       5     2.37   6.49   1.92   0.00  10.78     1.22
  Zr       6     2.37   6.48   1.93   0.00  10.78     1.22
  Zr       7     2.37   6.48   1.93   0.00  10.77     1.23
  Zr       8     2.37   6.49   1.92   0.00  10.78     1.22
  Zr       9     2.37   6.48   1.93   0.00  10.78     1.22
  Zr      10     2.37   6.48   1.93   0.00  10.77     1.23
  Sn       1     1.05   1.32  10.00   0.00  12.37     1.63
  Sn       2     1.05   1.32  10.00   0.00  12.37     1.63
  Sn       3     1.05   1.32  10.00   0.00  12.36     1.64
  Sn       4     1.05   1.31  10.00   0.00  12.37     1.63
  Sn       5     1.05   1.32  10.00   0.00  12.37     1.63
  Sn       6     1.05   1.32  10.00   0.00  12.37     1.63
  La       1     2.04   6.15   1.19   0.00   9.38     1.62
  La       2     2.06   6.16   1.19   0.00   9.41     1.59
  La       3     2.04   6.15   1.19   0.00   9.38     1.62
  La       4     2.05   6.16   1.19   0.00   9.41     1.59
  La       5     2.07   6.16   1.19   0.00   9.42     1.58
  La       6     2.06   6.16   1.19   0.00   9.41     1.59
  La       7     2.05   6.18   1.19   0.00   9.42     1.58
  La       8     2.09   6.19   1.19   0.00   9.47     1.53
  La       9     2.06   6.17   1.19   0.00   9.42     1.58
  La      10     2.08   6.20   1.19   0.00   9.47     1.53
  La      11     2.09   6.18   1.19   0.00   9.46     1.54
  La      12     2.02   6.15   1.19   0.00   9.36     1.64
  La      13     2.07   6.16   1.19   0.00   9.42     1.58
  La      14     2.02   6.15   1.19   0.00   9.36     1.64
  La      15     2.06   6.17   1.19   0.00   9.42     1.58
  La      16     2.08   6.17   1.19   0.00   9.45     1.55
==============================================================
 
            Bond              Population      Length (A)
============================================================
         O 55 -- Sn 1              0.35        2.10182
         O 40 -- Sn 2              0.35        2.10187
         O 19 -- Sn 4              0.35        2.10210
         O 54 -- Sn 3              0.35        2.10214
         O 12 -- Sn 1              0.35        2.10252
         O 37 -- Sn 4              0.34        2.10257
         O 20 -- Sn 2              0.35        2.10308
         O 50 -- Sn 5              0.35        2.10337
         O 11 -- Sn 4              0.34        2.10439
         O 23 -- Sn 2              0.35        2.10592
         O 28 -- Sn 4              0.34        2.10605
         O 21 -- Sn 1              0.35        2.10611
         O 52 -- Sn 6              0.34        2.10613
         O 22 -- Sn 4              0.34        2.10677
         O 44 -- Sn 6              0.34        2.10682
         O 13 -- Sn 5              0.35        2.10694
         O 26 -- Sn 1              0.35        2.10707
         O 24 -- Sn 3              0.34        2.10828
         O 14 -- Sn 6              0.34        2.10883
         O 38 -- Sn 2              0.35        2.10889
         O 42 -- Sn 5              0.34        2.10910
         O 25 -- Sn 3              0.34        2.10912
         O 56 -- Sn 4              0.34        2.10918
         O 27 -- Sn 2              0.34        2.10923
         O 39 -- Sn 3              0.34        2.10979
         O 24 -- Sn 6              0.34        2.11035
         O 30 -- Sn 6              0.34        2.11048
         O 25 -- Sn 5              0.34        2.11052
         O 17 -- Sn 3              0.35        2.11062
         O 10 -- Sn 3              0.34        2.11090
         O 53 -- Sn 1              0.34        2.11146
         O 31 -- Zr 6              0.42        2.11285
         O 32 -- Zr 7              0.42        2.11310
         O 30 -- Sn 5              0.33        2.11370
         O 46 -- Zr 3              0.42        2.11377
         O 18 -- Sn 1              0.33        2.11407
         O 41 -- Zr 4              0.42        2.11430
         O 16 -- Zr 10             0.43        2.11498
         O 9  -- Sn 2              0.33        2.11498
         O 15 -- Zr 9              0.42        2.11546
         O 46 -- Zr 5              0.42        2.11556
         O 47 -- Zr 6              0.42        2.11574
         O 43 -- Zr 2              0.42        2.11576
         O 11 -- Zr 7              0.45        2.11600
         O 43 -- Zr 8              0.42        2.11609
         O 18 -- Sn 5              0.33        2.11629
         O 37 -- Zr 4              0.45        2.11648
         O 31 -- Zr 9              0.43        2.11651
         O 20 -- Zr 5              0.45        2.11661
         O 27 -- Zr 9              0.45        2.11677
         O 34 -- Zr 8              0.43        2.11686
         O 55 -- Zr 2              0.45        2.11686
         O 9  -- Sn 6              0.34        2.11712
         O 40 -- Zr 3              0.44        2.11757
         O 45 -- Zr 1              0.43        2.11761
         O 41 -- Zr 10             0.43        2.11764
         O 35 -- Zr 2              0.43        2.11767
         O 51 -- Zr 2              0.43        2.11768
         O 49 -- Zr 5              0.43        2.11773
         O 47 -- Zr 4              0.43        2.11824
         O 12 -- Zr 8              0.44        2.11838
         O 19 -- Zr 9              0.45        2.11878
         O 32 -- Zr 10             0.43        2.11887
         O 36 -- Zr 10             0.42        2.11892
         O 33 -- Zr 3              0.42        2.11928
         O 52 -- Zr 1              0.44        2.11943
         O 54 -- Zr 1              0.44        2.11959
         O 15 -- Zr 7              0.43        2.11968
         O 21 -- Zr 7              0.45        2.11969
         O 16 -- Zr 6              0.43        2.11989
         O 22 -- Zr 8              0.46        2.12006
         O 48 -- Zr 1              0.43        2.12014
         O 35 -- Zr 9              0.42        2.12026
         O 26 -- Zr 10             0.45        2.12047
         O 28 -- Zr 5              0.45        2.12099
         O 33 -- Zr 7              0.43        2.12108
         O 53 -- Zr 3              0.46        2.12126
         O 36 -- Zr 3              0.43        2.12128
         O 34 -- Zr 4              0.42        2.12132
         O 29 -- Zr 8              0.42        2.12133
         O 56 -- Zr 1              0.46        2.12162
         O 39 -- Zr 4              0.45        2.12215
         O 50 -- Zr 1              0.44        2.12219
         O 51 -- Zr 6              0.43        2.12238
         O 23 -- Zr 6              0.45        2.12240
         O 14 -- Zr 5              0.45        2.12283
         O 10 -- Zr 6              0.45        2.12289
         O 42 -- Zr 2              0.45        2.12318
         O 49 -- Zr 4              0.43        2.12325
         O 29 -- Zr 5              0.43        2.12418
         O 17 -- Zr 10             0.45        2.12504
         O 48 -- Zr 7              0.42        2.12541
         O 44 -- Zr 3              0.45        2.12546
         O 13 -- Zr 8              0.45        2.12561
         O 45 -- Zr 9              0.43        2.12706
         O 38 -- Zr 2              0.45        2.12745
         O 3  -- La 14             0.18        2.35872
         O 3  -- La 3              0.19        2.35935
         O 8  -- La 4              0.18        2.35951
         O 7  -- La 7              0.17        2.35951
         O 7  -- La 3              0.18        2.35966
         O 5  -- La 6              0.18        2.35979
         O 6  -- La 12             0.19        2.35991
         O 6  -- La 14             0.19        2.35996
         O 2  -- La 12             0.18        2.36009
         O 1  -- La 1              0.17        2.36010
         O 1  -- La 15             0.18        2.36019
         O 5  -- La 2              0.17        2.36043
         O 2  -- La 7              0.18        2.36055
         O 6  -- La 9              0.18        2.36093
         O 4  -- La 6              0.18        2.36098
         O 4  -- La 4              0.18        2.36105
         O 2  -- La 2              0.18        2.36140
         O 4  -- La 9              0.16        2.36144
         O 6  -- La 1              0.19        2.36156
         O 8  -- La 5              0.17        2.36164
         O 5  -- La 15             0.18        2.36190
         O 8  -- La 13             0.17        2.36234
         O 7  -- La 16             0.17        2.36261
         O 3  -- La 5              0.18        2.36262
         O 2  -- La 13             0.18        2.36269
         O 1  -- La 10             0.17        2.36287
         O 4  -- La 16             0.17        2.36289
         O 8  -- La 10             0.17        2.36302
         O 3  -- La 8              0.17        2.36329
         O 5  -- La 8              0.16        2.36358
         O 1  -- La 11             0.17        2.36362
         O 7  -- La 11             0.17        2.36392
         O 35 -- La 16             0.14        2.65949
         O 47 -- La 11             0.14        2.66306
         O 45 -- La 5              0.13        2.66329
         O 43 -- La 14             0.12        2.66396
         O 46 -- La 1              0.12        2.66443
         O 34 -- La 11             0.13        2.66471
         O 33 -- La 13             0.13        2.66519
         O 31 -- La 13             0.13        2.66532
         O 36 -- La 2              0.13        2.66570
         O 41 -- La 2              0.13        2.66618
         O 16 -- La 5              0.13        2.66618
         O 49 -- La 12             0.13        2.66694
         O 51 -- La 14             0.12        2.66720
         O 46 -- La 15             0.13        2.66770
         O 25 -- La 8              0.23        2.66773
         O 51 -- La 1              0.13        2.66780
         O 49 -- La 1              0.12        2.66807
         O 29 -- La 15             0.13        2.66831
         O 32 -- La 14             0.12        2.66881
         O 15 -- La 12             0.12        2.66881
         O 48 -- La 4              0.13        2.66887
         O 43 -- La 3              0.13        2.66916
         O 18 -- La 8              0.24        2.66944
         O 48 -- La 6              0.14        2.66947
         O 32 -- La 12             0.12        2.66991
         O 15 -- La 13             0.12        2.67014
         O 36 -- La 15             0.14        2.67025
         O 29 -- La 6              0.14        2.67046
         O 54 -- La 7              0.17        2.67064
         O 41 -- La 12             0.12        2.67124
         O 21 -- La 8              0.18        2.67125
         O 39 -- La 8              0.18        2.67150
         O 33 -- La 4              0.14        2.67224
         O 16 -- La 14             0.12        2.67227
         O 38 -- La 10             0.18        2.67268
         O 50 -- La 5              0.18        2.67294
         O 9  -- La 10             0.24        2.67297
         O 55 -- La 10             0.18        2.67332
         O 12 -- La 9              0.17        2.67339
         O 42 -- La 16             0.18        2.67343
         O 40 -- La 9              0.17        2.67364
         O 24 -- La 10             0.24        2.67385
         O 47 -- La 1              0.12        2.67385
         O 31 -- La 5              0.12        2.67409
         O 30 -- La 16             0.24        2.67413
         O 45 -- La 3              0.14        2.67417
         O 13 -- La 11             0.18        2.67438
         O 22 -- La 9              0.18        2.67458
         O 11 -- La 8              0.17        2.67511
         O 53 -- La 9              0.18        2.67542
         O 52 -- La 2              0.18        2.67549
         O 20 -- La 7              0.18        2.67574
         O 34 -- La 3              0.14        2.67586
         O 14 -- La 16             0.19        2.67716
         O 17 -- La 10             0.18        2.67720
         O 9  -- La 11             0.24        2.67722
         O 37 -- La 8              0.18        2.67756
         O 35 -- La 3              0.13        2.67756
         O 50 -- La 4              0.18        2.67779
         O 27 -- La 9              0.18        2.67828
         O 52 -- La 6              0.18        2.67841
         O 56 -- La 7              0.18        2.67889
         O 30 -- La 11             0.24        2.67898
         O 44 -- La 2              0.18        2.67930
         O 24 -- La 13             0.23        2.67958
         O 44 -- La 13             0.18        2.68008
         O 19 -- La 9              0.18        2.68011
         O 23 -- La 11             0.18        2.68101
         O 26 -- La 10             0.18        2.68188
         O 18 -- La 5              0.24        2.68204
         O 54 -- La 3              0.18        2.68232
         O 10 -- La 7              0.18        2.68238
         O 23 -- La 7              0.18        2.68434
         O 28 -- La 16             0.18        2.68457
         O 56 -- La 2              0.18        2.68488
         O 28 -- La 7              0.18        2.68502
         O 20 -- La 12             0.16        2.68531
         O 14 -- La 6              0.18        2.68542
         O 25 -- La 15             0.24        2.68547
         O 10 -- La 13             0.18        2.68587
         O 13 -- La 15             0.19        2.68645
         O 40 -- La 4              0.19        2.68692
         O 26 -- La 5              0.18        2.68724
         O 12 -- La 6              0.19        2.68772
         O 42 -- La 4              0.19        2.68793
         O 55 -- La 1              0.17        2.68864
         O 22 -- La 14             0.17        2.68878
         O 19 -- La 16             0.18        2.68937
         O 53 -- La 1              0.18        2.69063
         O 27 -- La 12             0.17        2.69232
         O 17 -- La 15             0.19        2.69259
         O 37 -- La 2              0.18        2.69332
         O 38 -- La 4              0.19        2.69403
         O 11 -- La 14             0.17        2.69525
         O 21 -- La 6              0.18        2.69724
         O 39 -- La 3              0.18        2.69901
         O 12 -- O 53             -0.06        2.79370
         O 27 -- O 40             -0.06        2.79393
         O 25 -- O 39             -0.06        2.79439
         O 10 -- O 54             -0.06        2.79675
         O 18 -- O 25             -0.05        2.79688
         O 44 -- O 52             -0.06        2.79697
         O 19 -- O 22             -0.06        2.79718
         O 11 -- O 37             -0.06        2.79765
         O 18 -- O 21             -0.06        2.79806
         O 20 -- O 23             -0.06        2.79890
         O 14 -- O 30             -0.06        2.79900
         O 17 -- O 24             -0.06        2.79926
         O 13 -- O 30             -0.06        2.79942
         O 18 -- O 50             -0.06        2.79972
         O 26 -- O 55             -0.06        2.79986
         O 24 -- O 44             -0.06        2.79998
         O 9  -- O 24             -0.05        2.80064
         O 42 -- O 50             -0.06        2.80153
         O 9  -- O 30             -0.05        2.80282
         O 13 -- O 25             -0.06        2.80431
         O 30 -- O 42             -0.06        2.80436
         O 28 -- O 56             -0.06        2.80519
         O 9  -- O 38             -0.06        2.80626
         O 20 -- O 27             -0.06        2.80709
         O 14 -- O 52             -0.06        2.80757
         O 10 -- O 24             -0.06        2.80800
         O 37 -- O 56             -0.06        2.80846
         O 53 -- O 55             -0.06        2.80847
         O 19 -- O 28             -0.06        2.80937
         O 43 -- O 51             -0.04        2.80940
         O 36 -- O 41             -0.03        2.80969
         O 9  -- O 23             -0.05        2.80999
         O 34 -- O 47             -0.03        2.81056
         O 46 -- O 49             -0.03        2.81090
         O 11 -- O 22             -0.06        2.81110
         O 39 -- O 54             -0.06        2.81118
         O 41 -- O 49             -0.03        2.81146
         O 38 -- O 40             -0.06        2.81167
         O 18 -- O 26             -0.05        2.81192
         O 16 -- O 32             -0.03        2.81198
         O 15 -- O 32             -0.03        2.81213
         O 47 -- O 51             -0.03        2.81221
         O 12 -- O 21             -0.06        2.81232
         O 17 -- O 25             -0.05        2.81282
         O 15 -- O 31             -0.03        2.81322
         O 16 -- O 31             -0.03        2.81339
         O 36 -- O 46             -0.03        2.81555
         O 45 -- O 50             -0.03        2.81588
         O 34 -- O 43             -0.03        2.81600
         O 35 -- O 42             -0.03        2.81617
         O 31 -- O 45             -0.03        2.81636
         O 32 -- O 41             -0.03        2.81648
         O 15 -- O 33             -0.03        2.81725
         O 16 -- O 51             -0.03        2.81727
         O 33 -- O 44             -0.03        2.81858
         O 47 -- O 49             -0.03        2.81861
         O 33 -- O 48             -0.03        2.81876
         O 20 -- O 49             -0.03        2.81934
         O 22 -- O 43             -0.03        2.81949
         O 29 -- O 46             -0.03        2.81958
         O 19 -- O 35             -0.03        2.81993
         O 51 -- O 55             -0.03        2.82037
         O 12 -- O 22             -0.03        2.82051
         O 23 -- O 47             -0.03        2.82059
         O 10 -- O 31             -0.03        2.82070
         O 48 -- O 52             -0.03        2.82095
         O 35 -- O 45             -0.03        2.82101
         O 46 -- O 53             -0.03        2.82145
         O 35 -- O 43             -0.03        2.82155
         O 16 -- O 26             -0.03        2.82160
         O 12 -- O 29             -0.03        2.82164
         O 45 -- O 54             -0.03        2.82206
         O 37 -- O 41             -0.03        2.82231
         O 11 -- O 32             -0.03        2.82244
         O 11 -- O 21             -0.03        2.82269
         O 54 -- O 56             -0.03        2.82333
         O 40 -- O 53             -0.03        2.82354
         O 33 -- O 40             -0.03        2.82370
         O 38 -- O 55             -0.03        2.82389
         O 15 -- O 27             -0.03        2.82395
         O 37 -- O 39             -0.03        2.82464
         O 13 -- O 34             -0.03        2.82515
         O 20 -- O 28             -0.03        2.82560
         O 19 -- O 27             -0.03        2.82579
         O 52 -- O 56             -0.03        2.82610
         O 36 -- O 44             -0.03        2.82638
         O 14 -- O 28             -0.03        2.82690
         O 48 -- O 50             -0.03        2.82720
         O 13 -- O 29             -0.03        2.82893
         O 14 -- O 29             -0.03        2.82999
         O 21 -- O 48             -0.03        2.83081
         O 17 -- O 36             -0.03        2.83170
         O 34 -- O 39             -0.03        2.83406
         O 17 -- O 26             -0.03        2.83531
         O 10 -- O 23             -0.03        2.83754
         O 38 -- O 42             -0.03        2.84101
============================================================
 

Writing analysis data to 042.castep_bin

Writing model to 042.check
 
 A BibTeX formatted list of references used in this run has been written to 
 042.bib
 
Initialisation time =     55.22 s
Calculation time    =  33472.91 s
Finalisation time   =     84.08 s
Total time          =  33612.21 s
Peak Memory Use     = 2840336 kB
  
Overall parallel efficiency rating: Good (77%)                                  
  
Data was distributed by:-
G-vector (4-way); efficiency rating: Good (78%)                                 
k-point (14-way); efficiency rating: Excellent (98%)                            
