 +-------------------------------------------------+
 |                                                 |
 |      CCC   AA    SSS  TTTTT  EEEEE  PPPP        |
 |     C     A  A  S       T    E      P   P       |
 |     C     AAAA   SS     T    EEE    PPPP        |
 |     C     A  A     S    T    E      P           |
 |      CCC  A  A  SSS     T    EEEEE  P           |
 |                                                 |
 +-------------------------------------------------+
 |                                                 |
 | Welcome to Academic Release CASTEP version 16.11|          
 | Ab Initio Total Energy Program                  |
 |                                                 |
 | Authors:                                        |
 | M. Segall, M. Probert, C. Pickard, P. Hasnip,   |
 | S. Clark, K. Refson, J. R. Yates, M. Payne      |
 |                                                 |
 | Contributors:                                   |
 | P. Lindan, P. Haynes, J. White, V. Milman,      |
 | N. Govind, M. Gibson, P. Tulip, V. Cocula,      |
 | B. Montanari, D. Quigley, M. Glover,            |
 | L. Bernasconi, A. Perlov, M. Plummer,           |
 | E. McNellis, J. Meyer, J. Gale, D. Jochym       |
 | J. Aarons, B. Walker, R. Gillen, D. Jones       |
 | T. Green, I. J. Bush, C. J. Armstrong,          |
 | E. J. Higgins, E. L. Brown, M. S. McFly         |
 |                                                 |
 | Copyright (c) 2000 - 2015                       |
 |                                                 |
 |     Distributed under the terms of an           |
 |     Agreement between the United Kingdom        |
 |     Car-Parrinello (UKCP) Consortium,           |
 |     Daresbury Laboratory and Accelrys, Inc.     |
 |                                                 |
 | Please cite                                     |
 |                                                 |
 |     "First principles methods using CASTEP"     |
 |                                                 |
 |         Zeitschrift fuer Kristallographie       |
 |           220(5-6) pp. 567-570 (2005)           |
 |                                                 |
 | S. J. Clark, M. D. Segall, C. J. Pickard,       |
 | P. J. Hasnip, M. J. Probert, K. Refson,         |
 | M. C. Payne                                     |
 |                                                 |
 |       in all publications arising from          |
 |              your use of CASTEP                 |
 |                                                 |
 +-------------------------------------------------+
 
 
 Compiled for linux_x86_64_ifort16 on Sat, 23 Jul 2016 23:44:54 +0100
 from code version 
 203e84763863+ Castep161_branch Fri, 04 Mar 2016 19:21:07 +0000
 Compiler: Intel Fortran 16.0.3.210; Optimisation: fast
 MATHLIBS: Intel MKL(11.3.3) (LAPACK version 3.6.0)
 FFT Lib : mkl
 Fundamental constants values: CODATA 2010
 
 Run started: Wed, 14 Mar 2018 02:24:20 +0000
 +-------------------------------------------------+
 |                                                 |
 |           N   N    M   M    RRRR                |
 |           NN  N    MM MM    R   R               |
 |           N N N    M M M    RRRR                |
 |           N  NN    M   M    R  R                |
 |           N   N    M   M    R   R               |
 |                                                 |
 +-------------------------------------------------+
 |                                                 |
 | Welcome to Materials Studio CASTEP-NMR          |
 |                                                 |
 | Authors:                                        |
 | J.R. Yates, C.J. Pickard, F. Mauri              |
 |                                                 |
 | Contributors:                                   |
 | T.F.G. Green, S.A. Joyce                        |
 |                                                 |
 | Copyright (c) 2004 - 2015                       |
 |                                                 |
 | Please cite the appropriate publications in all |
 | work arising from your use of CASTEP NMR.       |
 |                                                 |
 | For NMR Shielding Tensors cite:                 |
 |    "All-electron magnetic response with         |
 |    pseudopotentials: NMR chemical shifts",      |
 |    C. J. Pickard, F. Mauri;                     |
 |    Physical Review B63 245101 (2001), and       |
 |                                                 |
 |    "Calculation of NMR Chemical Shifts          |
 |    for extended systems using                   |
 |    Ultrasoft Pseudopotentials",                 |
 |    J. R. Yates, C. J. Pickard and F. Mauri      |
 |    Physical Review B76 024401 (2007)            |
 |                                                 |
 | For Electric Field Gradients cite:              |
 |   "Accurate First Principles Prediction of 17O  |
 |    NMR Parameters in SiO2: Assignment of the    |
 |    Zeolite Ferrierite Spectrum"                 |
 |    M. Profeta, F. Mauri and C. J. Pickard       |
 |    J. Amer. Chem. Soc. 125 541 (2003)           |
 |                                                 |
 | For Spin-Spin (J) Couplings cite:               |
 |   "A first principles theory of NMR J-coupling  |
 |   in solid-state systems"                       |
 |   S.A. Joyce, J.R. Yates, C.J. Pickard, F. Mauri|
 |   J. Chem. Phys. 127 204107 (2007)              |
 |                                                 |
 |   "Relativistic NMR J-coupling with ultrasoft   |
 |   pseudopotentials and the zeroth-order regular |
 |   approximation"                                |
 |   T.F.G. Green and J.R. Yates                   |
 |   J. Chem. Phys. 140 234106 (2014)              |
 |                                                 |
 +-------------------------------------------------+
 
 
 Atomic calculation performed for O: 1s2 2s2 2p4
 
 Converged in 44 iterations to an ae energy of -2040.855 eV
 
 
 Atomic calculation performed for O: 1s2 2s2 2p4
 
 Exceeded max iterations: converged to 0.000000062 eV
 
   ============================================================                
   | Pseudopotential Report - Date of generation 14-03-2018   |                
   ------------------------------------------------------------                
   | Element: O Ionic charge:  6.00 Level of theory: PBE      |                
   | Atomic Solver: ZORA (scalar)                             |                
   |                                                          |                
   |               Reference Electronic Structure             |                
   |         Orbital         Occupation         Energy        |                
   |            2s              2.000           -0.881        |                
   |            2p              4.000           -0.332        |                
   |                                                          |                
   |                 Pseudopotential Definition               |                
   |        Beta     l      e      Rc     scheme   norm       |                
   |          1      0   -0.881   1.100     qc      0         |                
   |          2      0    0.250   1.100     qc      0         |                
   |          3      1   -0.332   1.100     qc      0         |                
   |          4      1    0.250   1.100     qc      0         |                
   |         loc     2    0.000   1.100     pn      0         |                
   |                                                          |                
   | Augmentation charge Rinner = 0.769                       |                
   | Partial core correction Rc = 0.769                       |                
   ------------------------------------------------------------                
   | "2|1.1|15|18|20|20:21(qc=7)"                             |                
   ------------------------------------------------------------                
   |      Author: Chris J. Pickard, Cambridge University      |                
   ============================================================                
 
 Atomic calculation performed for Zr: 1s2 2s2 2p6 3s2 3p6 3d10 4s2 4p6 4d2 5s2
 
 Converged in 53 iterations to an ae energy of -97719.888 eV
 
 
 Atomic calculation performed for Zr: 1s2 2s2 2p6 3s2 3p6 3d10 4s2 4p6 4d2 5s2
 
 Exceeded max iterations: converged to 0.000000970 eV
 
 Warning: ion_atom_descreen_psp: negative charge density encountered
   ============================================================                
   | Pseudopotential Report - Date of generation 14-03-2018   |                
   ------------------------------------------------------------                
   | Element: Zr Ionic charge: 12.00 Level of theory: PBE     |                
   | Atomic Solver: ZORA (scalar)                             |                
   |                                                          |                
   |               Reference Electronic Structure             |                
   |         Orbital         Occupation         Energy        |                
   |            4s              2.000           -2.003        |                
   |            4p              6.000           -1.193        |                
   |            5s              2.000           -0.163        |                
   |            4d              2.000           -0.132        |                
   |                                                          |                
   |                 Pseudopotential Definition               |                
   |        Beta     l      e      Rc     scheme   norm       |                
   |          1      0   -2.003   2.105     qc      0         |                
   |          2      0   -0.163   2.105     qc      0         |                
   |          3      0    0.250   2.105     qc      0         |                
   |          4      1   -1.193   2.105     qc      0         |                
   |          5      1    0.250   2.105     qc      0         |                
   |          6      2   -0.132   2.105     qc      0         |                
   |          7      2    0.250   2.105     qc      0         |                
   |         loc     3    0.000   2.105     pn      0         |                
   |                                                          |                
   | Augmentation charge Rinner = 1.471                       |                
   | Partial core correction Rc = 1.471                       |                
   ------------------------------------------------------------                
   | "3|2.1|7|8|9|40U:50:41:42"                               |                
   ------------------------------------------------------------                
   |      Author: Chris J. Pickard, Cambridge University      |                
   ============================================================                
 
 Atomic calculation performed for Sn:
 1s2 2s2 2p6 3s2 3p6 3d10 4s2 4p6 4d10 5s2 5p2
 
 Converged in 58 iterations to an ae energy of -167539.320 eV
 
 
 Atomic calculation performed for Sn:
 1s2 2s2 2p6 3s2 3p6 3d10 4s2 4p6 4d10 5s2 5p2
 
 Exceeded max iterations: converged to 0.000001154 eV
 
   ============================================================                
   | Pseudopotential Report - Date of generation 14-03-2018   |                
   ------------------------------------------------------------                
   | Element: Sn Ionic charge: 14.00 Level of theory: PBE     |                
   | Atomic Solver: ZORA (scalar)                             |                
   |                                                          |                
   |               Reference Electronic Structure             |                
   |         Orbital         Occupation         Energy        |                
   |            4d             10.000           -0.950        |                
   |            5s              2.000           -0.388        |                
   |            5p              2.000           -0.136        |                
   |                                                          |                
   |                 Pseudopotential Definition               |                
   |        Beta     l      e      Rc     scheme   norm       |                
   |          1      0   -0.388   2.199     qc      0         |                
   |          2      0    0.250   2.199     qc      0         |                
   |          3      1   -0.136   2.199     qc      0         |                
   |          4      1    0.250   2.199     qc      0         |                
   |          5      2   -0.950   2.199     qc      0         |                
   |          6      2    0.250   2.199     qc      0         |                
   |         loc     3    0.000   2.199     pn      0         |                
   |                                                          |                
   | Augmentation charge Rinner = 1.537                       |                
   | Partial core correction Rc = 1.537                       |                
   ------------------------------------------------------------                
   | "3|2.2|7|8|9|50:51:42"                                   |                
   ------------------------------------------------------------                
   |      Author: Chris J. Pickard, Cambridge University      |                
   ============================================================                
 
 Atomic calculation performed for La:
 1s2 2s2 2p6 3s2 3p6 3d10 4s2 4p6 4d10 5s2 5p6 5d1 6s2
 
 Converged in 56 iterations to an ae energy of -230121.495 eV
 
 
 Atomic calculation performed for La:
 1s2 2s2 2p6 3s2 3p6 3d10 4s2 4p6 4d10 5s2 5p6 5d1 6s2
 
 Exceeded max iterations: converged to 0.000000907 eV
 
 Warning: ion_atom_descreen_psp: negative charge density encountered
   ============================================================                
   | Pseudopotential Report - Date of generation 14-03-2018   |                
   ------------------------------------------------------------                
   | Element: La Ionic charge: 11.00 Level of theory: PBE     |                
   | Atomic Solver: ZORA (scalar)                             |                
   |                                                          |                
   |               Reference Electronic Structure             |                
   |         Orbital         Occupation         Energy        |                
   |            5s              2.000           -1.430        |                
   |            5p              6.000           -0.823        |                
   |            6s              2.000           -0.135        |                
   |            5d              1.000           -0.114        |                
   |                                                          |                
   |                 Pseudopotential Definition               |                
   |        Beta     l      e      Rc     scheme   norm       |                
   |          1      0   -1.430   2.298     qc      0         |                
   |          2      0   -0.135   2.298     qc      0         |                
   |          3      0    0.250   2.298     qc      0         |                
   |          4      1   -0.823   2.298     qc      0         |                
   |          5      1    0.250   2.298     qc      0         |                
   |          6      2   -0.114   2.298     qc      0         |                
   |          7      2    0.250   2.298     qc      0         |                
   |         loc     2    0.000   2.298     pn      0         |                
   |                                                          |                
   | Augmentation charge Rinner = 1.606                       |                
   | Partial core correction Rc = 1.606                       |                
   ------------------------------------------------------------                
   | "2|2.3|5|6|7|50U:60:51:52(qc=4.5)"                       |                
   ------------------------------------------------------------                
   |      Author: Chris J. Pickard, Cambridge University      |                
   ============================================================                
 
 Pseudo atomic calculation performed for O 2s2 2p4
 
 Converged in 39 iterations to a total energy of -432.6554 eV
 
 
 Pseudo atomic calculation performed for Zr 4s2 4p6 4d2 5s2
 
 Converged in 38 iterations to a total energy of -1285.4931 eV
 
 
 Pseudo atomic calculation performed for Sn 4d10 5s2 5p2
 
 Converged in 48 iterations to a total energy of -2044.5414 eV
 
 
 Pseudo atomic calculation performed for La 5s2 5p6 5d1 6s2
 
 Converged in 34 iterations to a total energy of -968.0372 eV
 
 Calculation parallelised over 56 processes.
 Data is distributed by G-vector(4-way) and k-point(14-way)

 ************************************ Title ************************************
 nmr testing

 ***************************** General Parameters ******************************
  
 output verbosity                               : normal  (1)
 write checkpoint data to                       : 043.check
 type of calculation                            : Magnetic Resonance
 stress calculation                             : on
 density difference calculation                 : off
 electron localisation func (ELF) calculation   : off
 Hirshfeld analysis                             : off
 unlimited duration calculation
 timing information                             : on
 memory usage estimate                          : on
 write final potential to formatted file        : off
 write final density to formatted file          : off
 write structure in CIF formatted file          : on
 write structure in CELL formatted file         : on
 write BibTeX reference list                    : on
 write OTFG pseudopotential files               : on
 checkpoint writing                             : both castep_bin and check files
  
 output         length unit                     : A
 output           mass unit                     : amu
 output           time unit                     : ps
 output         charge unit                     : e
 output           spin unit                     : hbar/2
 output         energy unit                     : eV
 output          force unit                     : eV/A
 output       velocity unit                     : A/ps
 output       pressure unit                     : GPa
 output     inv_length unit                     : 1/A
 output      frequency unit                     : cm-1
 output force constant unit                     : eV/A**2
 output         volume unit                     : A**3
 output   IR intensity unit                     : (D/A)**2/amu
 output         dipole unit                     : D
 output         efield unit                     : eV/A/e
 output        entropy unit                     : J/mol/K
  
 wavefunctions paging                           : none
 random number generator seed                   : randomised (22421839)
 data distribution                              : optimal for this architecture
 optimization strategy                          : maximize speed(+++)

 *********************** Exchange-Correlation Parameters ***********************
  
 using functional                               : Perdew Burke Ernzerhof
 relativistic treatment                         : ZORA
 DFT+D: Semi-empirical dispersion correction    : off

 ************************* Pseudopotential Parameters **************************
  
 pseudopotential representation                 : reciprocal space
 <beta|phi> representation                      : reciprocal space
 spin-orbit coupling                            : off

 **************************** Basis Set Parameters *****************************
  
 plane wave basis set cut-off                   :   816.3416   eV
 size of standard grid                          :     1.7500
 size of   fine   gmax                          :    25.6161   1/A
 finite basis set correction                    : automatic
 number of sample energies                      :          3
           sample  spacing                      :     5.0000   eV

 **************************** Electronic Parameters ****************************
  
 number of  electrons                           :  716.0    
 net charge of system                           :  0.000    
 treating system as non-spin-polarized
 number of bands                                :        430

 ********************* Electronic Minimization Parameters **********************
  
 Method: Treating system as metallic with density mixing treatment of electrons,
         and number of  SD  steps               :          1
         and number of  CG  steps               :          4
  
 total energy / atom convergence tol.           : 0.1000E-08   eV
 eigen-energy convergence tolerance             : 0.2458E-09   eV
 max force / atom convergence tol.              : ignored
 convergence tolerance window                   :          3   cycles
 max. number of SCF cycles                      :         50
 number of fixed-spin iterations                :         10
 smearing scheme                                : Gaussian
 smearing width                                 : 0.2000       eV
 Fermi energy convergence tolerance             : 0.2721E-13   eV
 periodic dipole correction                     : NONE

 ************************** Density Mixing Parameters **************************
  
 density-mixing scheme                          : Broyden
 max. length of mixing history                  :         20
 charge density mixing amplitude                : 0.8000    
 cut-off energy for mixing                      :  816.3       eV

 *********************** Population Analysis Parameters ************************
  
 Population analysis with cutoff                :  3.000       A

 ************************ Magnetic Resonance Parameters ************************
  
 Magnetic Resonance Property                    : Chemical Shielding + EFG
 Position Operator Method                       : crystal
 max. number of MagRes CG steps                 :        250
 convergence tolerance window                   :          2   cycles
 energy convergence tolerance                   : 0.1000E-11   eV
 band convergence tolerance                     : 0.1000E-08   eV

 *******************************************************************************
  
 
                           -------------------------------
                                      Unit Cell
                           -------------------------------
        Real Lattice(A)                      Reciprocal Lattice(1/A)
  10.9097279   0.0015937   0.0015937        0.5759250  -0.0000841  -0.0000841
   0.0015902  10.9044723  -0.0096737       -0.0000842   0.5762031   0.0005112
   0.0015902  -0.0096737  10.9044723       -0.0000842   0.0005112   0.5762031
 
                       Lattice parameters(A)       Cell Angles
                    a =   10.909728          alpha =   90.101656
                    b =   10.904477          beta  =   89.983282
                    c =   10.904477          gamma =   89.983282
 
                       Current cell volume = 1297.247561       A**3
 
                           -------------------------------
                                     Cell Contents
                           -------------------------------
                         Total number of ions in cell =   88
                      Total number of species in cell =    4
                        Max number of any one species =   56
 
            xxxxxxxxxxxxxxxxxxxxxxxxxxxxxxxxxxxxxxxxxxxxxxxxxxxxxxxxxxxx
            x  Element    Atom        Fractional coordinates of atoms  x
            x            Number           u          v          w      x
            x----------------------------------------------------------x
            x  O            1         0.125195   0.124982   0.124982   x 
            x  O            2         0.624947   0.124982   0.624982   x 
            x  O            3         0.125195   0.624982   0.624982   x 
            x  O            4         0.624947   0.624982   0.124982   x 
            x  O            5         0.874805   0.375018   0.375018   x 
            x  O            6         0.874805   0.875018   0.875018   x 
            x  O            7         0.375053   0.375018   0.875018   x 
            x  O            8         0.375053   0.875018   0.375018   x 
            x  O            9         0.421241   0.125674   0.125674   x 
            x  O           10         0.330637   0.124357   0.624357   x 
            x  O           11         0.830145   0.624869   0.624869   x 
            x  O           12         0.919876   0.624924   0.124924   x 
            x  O           13         0.125148   0.420537   0.123633   x 
            x  O           14         0.624851   0.329111   0.125698   x 
            x  O           15         0.624851   0.829111   0.625698   x 
            x  O           16         0.125148   0.920537   0.623633   x 
            x  O           17         0.125148   0.123633   0.420537   x 
            x  O           18         0.124801   0.626268   0.329564   x 
            x  O           19         0.624851   0.625698   0.829111   x 
            x  O           20         0.625919   0.124142   0.919670   x 
            x  O           21         0.875199   0.670436   0.373732   x 
            x  O           22         0.874852   0.579463   0.876367   x 
            x  O           23         0.374081   0.080330   0.875858   x 
            x  O           24         0.375149   0.170889   0.374302   x 
            x  O           25         0.169855   0.375131   0.375131   x 
            x  O           26         0.080124   0.875076   0.375076   x 
            x  O           27         0.578759   0.874326   0.874326   x 
            x  O           28         0.669363   0.375643   0.875643   x 
            x  O           29         0.874852   0.376367   0.079463   x 
            x  O           30         0.375149   0.374302   0.170889   x 
            x  O           31         0.375149   0.874302   0.670889   x 
            x  O           32         0.874852   0.876367   0.579463   x 
            x  O           33         0.669363   0.875643   0.375643   x 
            x  O           34         0.080124   0.375076   0.875076   x 
            x  O           35         0.375149   0.670889   0.874302   x 
            x  O           36         0.874852   0.079463   0.376367   x 
            x  O           37         0.875199   0.373732   0.670436   x 
            x  O           38         0.374081   0.875858   0.080330   x 
            x  O           39         0.124801   0.329564   0.626268   x 
            x  O           40         0.625919   0.919670   0.124142   x 
            x  O           41         0.919876   0.124924   0.624924   x 
            x  O           42         0.330637   0.624357   0.124357   x 
            x  O           43         0.125148   0.623633   0.920537   x 
            x  O           44         0.624851   0.125698   0.329111   x 
            x  O           45         0.421241   0.625674   0.625674   x 
            x  O           46         0.830145   0.124869   0.124869   x 
            x  O           47         0.124801   0.126268   0.829564   x 
            x  O           48         0.625919   0.624142   0.419670   x 
            x  O           49         0.875199   0.170436   0.873732   x 
            x  O           50         0.374081   0.580330   0.375858   x 
            x  O           51         0.169855   0.875131   0.875131   x 
            x  O           52         0.578759   0.374326   0.374326   x 
            x  O           53         0.875199   0.873732   0.170436   x 
            x  O           54         0.374081   0.375858   0.580330   x 
            x  O           55         0.124801   0.829564   0.126268   x 
            x  O           56         0.625919   0.419670   0.624142   x 
            x  Zr           1         0.500000   0.500000   0.500000   x 
            x  Zr           2         0.249792   0.749409   0.000333   x 
            x  Zr           3         0.750208   0.999667   0.250591   x 
            x  Zr           4         0.750208   0.250591   0.999667   x 
            x  Zr           5         0.249792   0.000333   0.749409   x 
            x  Zr           6         0.500000   0.000000   0.000000   x 
            x  Zr           7         0.249792   0.249409   0.500333   x 
            x  Zr           8         0.750208   0.499667   0.750591   x 
            x  Zr           9         0.750208   0.750591   0.499667   x 
            x  Zr          10         0.249792   0.500333   0.249409   x 
            x  Sn           1         0.000000   0.250000   0.750000   x 
            x  Sn           2        -0.000000   0.750000   0.250000   x 
            x  Sn           3         0.000000   0.500000   0.000000   x 
            x  Sn           4         0.500000   0.250000   0.250000   x 
            x  Sn           5         0.500000   0.750000   0.750000   x 
            x  Sn           6        -0.000000   0.000000   0.500000   x 
            x  La           1        -0.000000   0.000000   0.000000   x 
            x  La           2         0.749812   0.250254   0.500224   x 
            x  La           3         0.250188   0.499776   0.749746   x 
            x  La           4         0.500000   0.750000   0.250000   x 
            x  La           5         0.250188   0.749746   0.499776   x 
            x  La           6         0.749812   0.500224   0.250254   x 
            x  La           7         0.500000   0.250000   0.750000   x 
            x  La           8         0.000000   0.500000   0.500000   x 
            x  La           9         0.749812   0.750254   0.000224   x 
            x  La          10         0.250188   0.999776   0.249746   x 
            x  La          11         0.250188   0.249746   0.999776   x 
            x  La          12         0.749812   0.000224   0.750254   x 
            x  La          13         0.500000   0.000000   0.500000   x 
            x  La          14         0.000000   0.750000   0.750000   x 
            x  La          15         0.000000   0.250000   0.250000   x 
            x  La          16         0.500000   0.500000  -0.000000   x 
            xxxxxxxxxxxxxxxxxxxxxxxxxxxxxxxxxxxxxxxxxxxxxxxxxxxxxxxxxxxx
 
 
                         No user defined ionic velocities
 
                           -------------------------------
                                   Details of Species
                           -------------------------------
 
                               Mass of species in AMU
                                    O   15.9994000
                                    Zr   91.2240000
                                    Sn  118.7100000
                                    La  138.9055000
 
                          Electric Quadrupole Moment (Barn)
                                    O   -0.0255800 Isotope 17
                                    Zr   -0.1760000 Isotope 91
                                    Sn    1.0000000 No Isotope Defined
                                    La    0.2000000 Isotope139
 
                          Files used for pseudopotentials:
                                    O 2|1.1|15|18|20|20:21(qc=7)
                                    Zr 3|2.1|7|8|9|40U:50:41:42
                                    Sn 3|2.2|7|8|9|50:51:42
                                    La 2|2.3|5|6|7|50U:60:51:52(qc=4.5)
 
                           -------------------------------
                              k-Points For BZ Sampling
                           -------------------------------
                       MP grid size for SCF calculation is  3  3  3
                            with an offset of   0.000  0.000  0.000
                       Number of kpoints used =            14
 
                           -------------------------------
                               Symmetry and Constraints
                           -------------------------------
 
                      Cell is a supercell containing 2 primitive cells
                      Maximum deviation from symmetry =  0.00000         ANG
 
         There are no symmetry operations specified or generated for this cell
                      Number of ionic constraints     =           3
                      Point group of crystal =     1: C1, 1, 1
                      Space group of crystal =    10: P2/m, -P 2y
 
 
                         Centre of mass is constrained
             Set iprint > 1 for details of linear ionic constraints
 
                         Number of cell constraints= 0
                         Cell constraints are:  1 2 3 4 5 6
 
                         External pressure/stress (GPa)
                          0.00000   0.00000   0.00000
                                    0.00000   0.00000
                                              0.00000
  
+---------------- MEMORY AND SCRATCH DISK ESTIMATES PER PROCESS --------------+
|                                                     Memory          Disk    |
| Baseline code, static data and system overhead      322.0 MB         0.0 MB |
| BLAS internal memory storage                          0.0 MB         0.0 MB |
| Model and support data                             1319.6 MB         0.0 MB |
| Electronic energy minimisation requirements         380.6 MB         0.0 MB |
| Force calculation requirements                       24.1 MB         0.0 MB |
| Stress calculation requirements                      28.3 MB         0.0 MB |
|                                               ----------------------------- |
| Approx. total storage required per process         2022.2 MB         0.0 MB |
|                                                                             |
| Requirements will fluctuate during execution and may exceed these estimates |
+-----------------------------------------------------------------------------+
Calculating finite basis set correction with  3 cut-off energies.
Calculating total energy with cut-off of  806.342eV.
------------------------------------------------------------------------ <-- SCF
SCF loop      Energy           Fermi           Energy gain       Timer   <-- SCF
                               energy          per atom          (sec)   <-- SCF
------------------------------------------------------------------------ <-- SCF
Initial  -5.43691431E+004  0.00000000E+000                        75.53  <-- SCF
      1  -6.30257650E+004  7.59539101E+000   9.83707030E+001     216.09  <-- SCF
      2  -6.55937355E+004  7.07113342E+000   2.91814833E+001     309.41  <-- SCF
      3  -6.56722123E+004  6.82603320E+000   8.91781666E-001     414.46  <-- SCF
      4  -6.56680178E+004  7.73337564E+000  -4.76644700E-002     545.05  <-- SCF
      5  -6.55600617E+004  7.32371212E+000  -1.22677394E+000     675.52  <-- SCF
      6  -6.55616926E+004  7.28477478E+000   1.85333866E-002     835.41  <-- SCF
      7  -6.55614238E+004  7.34090333E+000  -3.05502213E-003     970.81  <-- SCF
      8  -6.55614864E+004  7.35346891E+000   7.11152329E-004    1142.02  <-- SCF
      9  -6.55615077E+004  7.35974381E+000   2.42357453E-004    1294.13  <-- SCF
     10  -6.55615085E+004  7.35911784E+000   8.53024029E-006    1439.37  <-- SCF
     11  -6.55615080E+004  7.36142611E+000  -5.52542233E-006    1577.36  <-- SCF
     12  -6.55615084E+004  7.36231580E+000   4.47354633E-006    1729.89  <-- SCF
     13  -6.55615084E+004  7.36244046E+000   3.82947204E-007    1870.07  <-- SCF
     14  -6.55615084E+004  7.36253601E+000   4.34641849E-008    2002.78  <-- SCF
     15  -6.55615084E+004  7.36250594E+000   1.10302870E-008    2143.74  <-- SCF
     16  -6.55615084E+004  7.36245276E+000  -3.79188087E-009    2262.40  <-- SCF
     17  -6.55615084E+004  7.36239357E+000  -6.92258011E-010    2374.74  <-- SCF
     18  -6.55615084E+004  7.36236942E+000  -3.98930728E-010    2469.09  <-- SCF
     19  -6.55615084E+004  7.36235379E+000   1.65225099E-010    2560.03  <-- SCF
------------------------------------------------------------------------ <-- SCF
 
Final energy, E             =  -65561.50840289     eV
Final free energy (E-TS)    =  -65561.50840289     eV
(energies not corrected for finite basis set)
 
NB est. 0K energy (E-0.5TS)      =  -65561.50840289     eV
 
Calculating total energy with cut-off of  811.342eV.
------------------------------------------------------------------------ <-- SCF
SCF loop      Energy           Fermi           Energy gain       Timer   <-- SCF
                               energy          per atom          (sec)   <-- SCF
------------------------------------------------------------------------ <-- SCF
Initial  -6.55615084E+004  0.00000000E+000                      2595.58  <-- SCF
      1  -6.55615109E+004  7.36233196E+000   2.80145645E-005    2707.76  <-- SCF
      2  -6.55615109E+004  7.36233196E+000   2.01363695E-010    2798.62  <-- SCF
      3  -6.55615109E+004  7.36233316E+000   1.64274527E-008    2886.31  <-- SCF
      4  -6.55615109E+004  7.36234436E+000   5.29985871E-010    2973.87  <-- SCF
      5  -6.55615109E+004  7.36234320E+000  -6.45432514E-011    3061.08  <-- SCF
------------------------------------------------------------------------ <-- SCF
 
Final energy, E             =  -65561.51086967     eV
Final free energy (E-TS)    =  -65561.51086967     eV
(energies not corrected for finite basis set)
 
NB est. 0K energy (E-0.5TS)      =  -65561.51086967     eV
 
Calculating total energy with cut-off of  816.342eV.
------------------------------------------------------------------------ <-- SCF
SCF loop      Energy           Fermi           Energy gain       Timer   <-- SCF
                               energy          per atom          (sec)   <-- SCF
------------------------------------------------------------------------ <-- SCF
Initial  -6.55615109E+004  0.00000000E+000                      3096.75  <-- SCF
      1  -6.55615138E+004  7.36235636E+000   3.31600705E-005    3208.04  <-- SCF
      2  -6.55615138E+004  7.36235636E+000   2.03754186E-010    3295.74  <-- SCF
      3  -6.55615138E+004  7.36234431E+000   2.05341753E-008    3383.43  <-- SCF
      4  -6.55615138E+004  7.36234774E+000   6.47963622E-010    3470.77  <-- SCF
      5  -6.55615138E+004  7.36234181E+000  -1.57491158E-011    3558.76  <-- SCF
------------------------------------------------------------------------ <-- SCF
 
Final energy, E             =  -65561.51378963     eV
Final free energy (E-TS)    =  -65561.51378963     eV
(energies not corrected for finite basis set)
 
NB est. 0K energy (E-0.5TS)      =  -65561.51378963     eV
 
 For future reference: finite basis dEtot/dlog(Ecut) =      -0.437782eV
 Total energy corrected for finite basis set =  -65561.513772 eV
 
  =====================================================================
  +       Calculation of Nuclear Magnetic Resonance Parameters        +
  + ================================================================= +
 
  Starting Calculation of Electric Field Gradient Tensors         |<-- EFG
  +---------------- MEMORY AND SCRATCH DISK ESTIMATES PER PROCESS --------------+
  |                                                     Memory          Disk    |
  | Model and support data                             1317.3 MB         0.0 MB |
  | NMR EFG calculation requirements                    366.2 MB         0.0 MB |
  |                                               ----------------------------- |
  | Approx. total storage required per process         1683.6 MB         0.0 MB |
  |                                                                             |
  | Requirements will fluctuate during execution and may exceed these estimates |
  +-----------------------------------------------------------------------------+
  Total Time for EFG Tensors                     444.35 sec       |<-- EFG
 
  Starting Calculation of Chemical Shielding Tensors              |<-- NMR
  +---------------- MEMORY AND SCRATCH DISK ESTIMATES PER PROCESS --------------+
  |                                                     Memory          Disk    |
  | Model and support data                             1317.3 MB         0.0 MB |
  | NMR chemical shift calculation requirements         562.5 MB         0.0 MB |
  |                                               ----------------------------- |
  | Approx. total storage required per process         1879.8 MB         0.0 MB |
  |                                                                             |
  | Requirements will fluctuate during execution and may exceed these estimates |
  +-----------------------------------------------------------------------------+
  Starting k-point:   1 of   1                                    |<-- NMR
  Total Time for step 1 of 6:                   3305.35 sec       |<-- NMR
  Total Time for step 2 of 6:                   3305.26 sec       |<-- NMR
  Total Time for step 3 of 6:                   3271.95 sec       |<-- NMR
  Total Time for step 4 of 6:                   3287.27 sec       |<-- NMR
  Total Time for step 5 of 6:                   3290.99 sec       |<-- NMR
  Total Time for step 6 of 6:                   3299.09 sec       |<-- NMR
  Total Time for Chemical Shielding Tensors    28892.97 sec       |<-- NMR
 
  ========================================================================
  |           Chemical Shielding and Electric Field Gradient Tensors     |
  |----------------------------------------------------------------------|
  |     Nucleus                Shielding tensor             EFG Tensor   |
  |  Species       Ion    Iso(ppm)   Aniso(ppm)  Asym    Cq(MHz)    Eta  |
  |    O           1     -317.00      19.56      0.79   8.781E-02   0.82 |
  |    O           2     -316.65      11.87      0.76  -6.764E-02   0.10 |
  |    O           3     -317.00      19.56      0.79   8.781E-02   0.82 |
  |    O           4     -316.65      11.87      0.76  -6.764E-02   0.10 |
  |    O           5     -317.00      19.56      0.79   8.781E-02   0.82 |
  |    O           6     -317.00      19.56      0.79   8.781E-02   0.82 |
  |    O           7     -316.65      11.87      0.76  -6.764E-02   0.10 |
  |    O           8     -316.65      11.87      0.76  -6.764E-02   0.10 |
  |    O           9      -84.85      87.10      0.18  -3.261E+00   0.12 |
  |    O          10     -164.00     153.99      0.88   1.073E+00   0.81 |
  |    O          11     -160.85     139.55      0.83   1.075E+00   0.67 |
  |    O          12       -9.48      70.72      0.24   3.927E+00   0.82 |
  |    O          13      -86.38      89.99      0.12  -3.170E+00   0.09 |
  |    O          14      -85.37      93.83      0.30  -3.159E+00   0.10 |
  |    O          15      -85.37      93.83      0.30  -3.159E+00   0.10 |
  |    O          16      -86.38      89.99      0.12  -3.170E+00   0.09 |
  |    O          17      -86.38      90.00      0.12  -3.170E+00   0.09 |
  |    O          18      -86.74      78.15      0.06  -3.240E+00   0.10 |
  |    O          19      -85.37      93.83      0.30  -3.159E+00   0.10 |
  |    O          20     -162.22     152.04      0.82   1.053E+00   0.81 |
  |    O          21      -86.74      78.14      0.06  -3.240E+00   0.10 |
  |    O          22      -86.38      89.99      0.12  -3.170E+00   0.09 |
  |    O          23     -162.22     152.04      0.82   1.053E+00   0.81 |
  |    O          24      -85.37      93.83      0.30  -3.159E+00   0.10 |
  |    O          25     -160.85     139.55      0.83   1.075E+00   0.67 |
  |    O          26       -9.48      70.72      0.24   3.927E+00   0.82 |
  |    O          27      -84.85      87.09      0.18  -3.261E+00   0.12 |
  |    O          28     -164.00     153.99      0.88   1.073E+00   0.81 |
  |    O          29      -86.38      89.99      0.12  -3.170E+00   0.09 |
  |    O          30      -85.37      93.83      0.30  -3.159E+00   0.10 |
  |    O          31      -85.37      93.83      0.30  -3.159E+00   0.10 |
  |    O          32      -86.38      89.99      0.12  -3.170E+00   0.09 |
  |    O          33     -164.00     153.99      0.88   1.073E+00   0.81 |
  |    O          34       -9.48      70.72      0.24   3.927E+00   0.82 |
  |    O          35      -85.37      93.83      0.30  -3.159E+00   0.10 |
  |    O          36      -86.38      89.99      0.12  -3.170E+00   0.09 |
  |    O          37      -86.74      78.14      0.06  -3.240E+00   0.10 |
  |    O          38     -162.22     152.04      0.82   1.053E+00   0.81 |
  |    O          39      -86.74      78.15      0.06  -3.240E+00   0.10 |
  |    O          40     -162.22     152.04      0.82   1.053E+00   0.81 |
  |    O          41       -9.48      70.72      0.24   3.927E+00   0.82 |
  |    O          42     -164.00     153.99      0.88   1.073E+00   0.81 |
  |    O          43      -86.38      90.00      0.12  -3.170E+00   0.09 |
  |    O          44      -85.37      93.83      0.30  -3.159E+00   0.10 |
  |    O          45      -84.85      87.10      0.18  -3.261E+00   0.12 |
  |    O          46     -160.85     139.55      0.83   1.075E+00   0.67 |
  |    O          47      -86.74      78.15      0.06  -3.240E+00   0.10 |
  |    O          48     -162.22     152.04      0.82   1.053E+00   0.81 |
  |    O          49      -86.74      78.14      0.06  -3.240E+00   0.10 |
  |    O          50     -162.22     152.04      0.82   1.053E+00   0.81 |
  |    O          51     -160.85     139.55      0.83   1.075E+00   0.67 |
  |    O          52      -84.85      87.09      0.18  -3.261E+00   0.12 |
  |    O          53      -86.74      78.14      0.06  -3.240E+00   0.10 |
  |    O          54     -162.22     152.04      0.82   1.053E+00   0.81 |
  |    O          55      -86.74      78.15      0.06  -3.240E+00   0.10 |
  |    O          56     -162.22     152.04      0.82   1.053E+00   0.81 |
  |    Zr          1     1634.07    -127.75      0.04  -3.911E+01   0.01 |
  |    Zr          2     1626.98    -125.84      0.14  -3.796E+01   0.03 |
  |    Zr          3     1626.98    -125.84      0.14  -3.796E+01   0.03 |
  |    Zr          4     1626.98    -125.84      0.14  -3.796E+01   0.03 |
  |    Zr          5     1626.98    -125.84      0.14  -3.796E+01   0.03 |
  |    Zr          6     1634.07    -127.75      0.04  -3.911E+01   0.01 |
  |    Zr          7     1626.98    -125.84      0.14  -3.796E+01   0.03 |
  |    Zr          8     1626.98    -125.84      0.14  -3.796E+01   0.03 |
  |    Zr          9     1626.98    -125.84      0.14  -3.796E+01   0.03 |
  |    Zr         10     1626.98    -125.84      0.14  -3.796E+01   0.03 |
  |    Sn          1     3259.40     -62.56      0.03   1.288E+02   0.14 |
  |    Sn          2     3259.40     -62.56      0.03   1.288E+02   0.14 |
  |    Sn          3     3258.05     -58.85      0.31   1.272E+02   0.02 |
  |    Sn          4     3245.32     -35.98      0.50   1.310E+02   0.16 |
  |    Sn          5     3245.32     -35.98      0.50   1.310E+02   0.16 |
  |    Sn          6     3258.05     -58.85      0.31   1.272E+02   0.02 |
  |    La          1     4710.94     770.33      0.11  -8.345E+01   0.13 |
  |    La          2     4651.81     661.80      0.12  -7.848E+01   0.12 |
  |    La          3     4651.81     661.80      0.12  -7.848E+01   0.12 |
  |    La          4     4802.88     951.58      0.00  -8.896E+01   0.02 |
  |    La          5     4651.81     661.80      0.12  -7.848E+01   0.12 |
  |    La          6     4651.81     661.80      0.12  -7.848E+01   0.12 |
  |    La          7     4802.88     951.58      0.00  -8.896E+01   0.02 |
  |    La          8     4710.94     770.33      0.11  -8.345E+01   0.13 |
  |    La          9     4651.81     661.80      0.12  -7.848E+01   0.12 |
  |    La         10     4651.81     661.80      0.12  -7.848E+01   0.12 |
  |    La         11     4651.81     661.80      0.12  -7.848E+01   0.12 |
  |    La         12     4651.81     661.80      0.12  -7.848E+01   0.12 |
  |    La         13     4708.81     792.27      0.11  -8.350E+01   0.10 |
  |    La         14     4719.48     772.13      0.09  -8.491E+01   0.12 |
  |    La         15     4719.48     772.13      0.09  -8.491E+01   0.12 |
  |    La         16     4708.81     792.27      0.11  -8.350E+01   0.10 |
  ========================================================================
 
 *********************** Forces ***********************
 *                                                    *
 *            Cartesian components (eV/A)             *
 * -------------------------------------------------- *
 *                   x            y            z      *
 *                                                    *
 * O         1     -0.00049     -0.00052     -0.00052 *
 * O         2     -0.00683      0.00094      0.00094 *
 * O         3     -0.00049     -0.00052     -0.00052 *
 * O         4     -0.00683      0.00094      0.00094 *
 * O         5      0.00049      0.00052      0.00052 *
 * O         6      0.00049      0.00052      0.00052 *
 * O         7      0.00683     -0.00094     -0.00094 *
 * O         8      0.00683     -0.00094     -0.00094 *
 * O         9      0.00770      0.01613      0.01613 *
 * O        10     -0.00184     -0.00252     -0.00252 *
 * O        11     -0.00044      0.00156      0.00156 *
 * O        12      0.00273     -0.00002     -0.00002 *
 * O        13     -0.03093     -0.00034     -0.03636 *
 * O        14     -0.01495      0.00616      0.01622 *
 * O        15     -0.01495      0.00616      0.01622 *
 * O        16     -0.03093     -0.00034     -0.03636 *
 * O        17     -0.03093     -0.03636     -0.00034 *
 * O        18     -0.02980      0.02533     -0.01051 *
 * O        19     -0.01495      0.01622      0.00616 *
 * O        20      0.00118      0.01079      0.00283 *
 * O        21      0.02980      0.01051     -0.02533 *
 * O        22      0.03093      0.00034      0.03636 *
 * O        23     -0.00118     -0.00283     -0.01079 *
 * O        24      0.01495     -0.00616     -0.01622 *
 * O        25      0.00044     -0.00156     -0.00156 *
 * O        26     -0.00273      0.00002      0.00002 *
 * O        27     -0.00770     -0.01613     -0.01613 *
 * O        28      0.00184      0.00252      0.00252 *
 * O        29      0.03093      0.03636      0.00034 *
 * O        30      0.01495     -0.01622     -0.00616 *
 * O        31      0.01495     -0.01622     -0.00616 *
 * O        32      0.03093      0.03636      0.00034 *
 * O        33      0.00184      0.00252      0.00252 *
 * O        34     -0.00273      0.00002      0.00002 *
 * O        35      0.01495     -0.00616     -0.01622 *
 * O        36      0.03093      0.00034      0.03636 *
 * O        37      0.02980     -0.02533      0.01051 *
 * O        38     -0.00118     -0.01079     -0.00283 *
 * O        39     -0.02980     -0.01051      0.02533 *
 * O        40      0.00118      0.00283      0.01079 *
 * O        41      0.00273     -0.00002     -0.00002 *
 * O        42     -0.00184     -0.00252     -0.00252 *
 * O        43     -0.03093     -0.03636     -0.00034 *
 * O        44     -0.01495      0.01622      0.00616 *
 * O        45      0.00770      0.01613      0.01613 *
 * O        46     -0.00044      0.00156      0.00156 *
 * O        47     -0.02980      0.02533     -0.01051 *
 * O        48      0.00118      0.01079      0.00283 *
 * O        49      0.02980      0.01051     -0.02533 *
 * O        50     -0.00118     -0.00283     -0.01079 *
 * O        51      0.00044     -0.00156     -0.00156 *
 * O        52     -0.00770     -0.01613     -0.01613 *
 * O        53      0.02980     -0.02533      0.01051 *
 * O        54     -0.00118     -0.01079     -0.00283 *
 * O        55     -0.02980     -0.01051      0.02533 *
 * O        56      0.00118      0.00283      0.01079 *
 * Zr        1     -0.00000      0.00000      0.00000 *
 * Zr        2      0.00015      0.02678     -0.03117 *
 * Zr        3     -0.00015      0.03117     -0.02678 *
 * Zr        4     -0.00015     -0.02678      0.03117 *
 * Zr        5      0.00015     -0.03117      0.02678 *
 * Zr        6      0.00000     -0.00000     -0.00000 *
 * Zr        7      0.00015      0.02678     -0.03117 *
 * Zr        8     -0.00015      0.03117     -0.02678 *
 * Zr        9     -0.00015     -0.02678      0.03117 *
 * Zr       10      0.00015     -0.03117      0.02678 *
 * Sn        1      0.00000      0.00000      0.00000 *
 * Sn        2      0.00000     -0.00000     -0.00000 *
 * Sn        3      0.00000     -0.00000     -0.00000 *
 * Sn        4     -0.00000      0.00000     -0.00000 *
 * Sn        5     -0.00000     -0.00000      0.00000 *
 * Sn        6      0.00000      0.00000      0.00000 *
 * La        1      0.00000      0.00000      0.00000 *
 * La        2     -0.00137     -0.00047     -0.00192 *
 * La        3      0.00137      0.00192      0.00047 *
 * La        4     -0.00000     -0.00000     -0.00000 *
 * La        5      0.00137      0.00047      0.00192 *
 * La        6     -0.00137     -0.00192     -0.00047 *
 * La        7     -0.00000      0.00000      0.00000 *
 * La        8      0.00000      0.00000     -0.00000 *
 * La        9     -0.00137     -0.00047     -0.00192 *
 * La       10      0.00137      0.00192      0.00047 *
 * La       11      0.00137      0.00047      0.00192 *
 * La       12     -0.00137     -0.00192     -0.00047 *
 * La       13     -0.00000     -0.00000     -0.00000 *
 * La       14      0.00000     -0.00000      0.00000 *
 * La       15      0.00000      0.00000     -0.00000 *
 * La       16     -0.00000      0.00000      0.00000 *
 *                                                    *
 ******************************************************
 
 ***************** Stress Tensor *****************
 *                                               *
 *          Cartesian components (GPa)           *
 * --------------------------------------------- *
 *             x             y             z     *
 *                                               *
 *  x     -0.003178      0.003877      0.003877  *
 *  y      0.003877      0.001621     -0.008138  *
 *  z      0.003877     -0.008138      0.001621  *
 *                                               *
 *  Pressure:   -0.0000                          *
 *                                               *
 *************************************************
 
 Pseudo atomic calculation performed for O 2s2 2p4
 
 Converged in 39 iterations to a total energy of -432.6554 eV
 
 
 Pseudo atomic calculation performed for Zr 4s2 4p6 4d2 5s2
 
 Converged in 38 iterations to a total energy of -1285.4931 eV
 
 
 Pseudo atomic calculation performed for Sn 4d10 5s2 5p2
 
 Converged in 48 iterations to a total energy of -2044.5414 eV
 
 
 Pseudo atomic calculation performed for La 5s2 5p6 5d1 6s2
 
 Converged in 34 iterations to a total energy of -968.0372 eV
 
Charge spilling parameter for spin component 1 = 0.23%
 
     Atomic Populations (Mulliken)
     -----------------------------
Species   Ion     s      p      d      f     Total  Charge (e)
==============================================================
  O        1     1.87   5.00   0.00   0.00   6.87    -0.87
  O        2     1.87   5.00   0.00   0.00   6.87    -0.87
  O        3     1.87   5.00   0.00   0.00   6.87    -0.87
  O        4     1.87   5.00   0.00   0.00   6.87    -0.87
  O        5     1.87   5.00   0.00   0.00   6.87    -0.87
  O        6     1.87   5.00   0.00   0.00   6.87    -0.87
  O        7     1.87   5.00   0.00   0.00   6.87    -0.87
  O        8     1.87   5.00   0.00   0.00   6.87    -0.87
  O        9     1.87   4.99   0.00   0.00   6.85    -0.85
  O       10     1.86   4.95   0.00   0.00   6.80    -0.80
  O       11     1.86   4.95   0.00   0.00   6.80    -0.80
  O       12     1.88   5.02   0.00   0.00   6.91    -0.91
  O       13     1.87   4.99   0.00   0.00   6.85    -0.85
  O       14     1.87   4.99   0.00   0.00   6.85    -0.85
  O       15     1.87   4.99   0.00   0.00   6.85    -0.85
  O       16     1.87   4.99   0.00   0.00   6.85    -0.85
  O       17     1.87   4.99   0.00   0.00   6.85    -0.85
  O       18     1.87   4.99   0.00   0.00   6.85    -0.85
  O       19     1.87   4.99   0.00   0.00   6.85    -0.85
  O       20     1.86   4.94   0.00   0.00   6.80    -0.80
  O       21     1.87   4.99   0.00   0.00   6.85    -0.85
  O       22     1.87   4.99   0.00   0.00   6.85    -0.85
  O       23     1.86   4.94   0.00   0.00   6.80    -0.80
  O       24     1.87   4.99   0.00   0.00   6.85    -0.85
  O       25     1.86   4.95   0.00   0.00   6.80    -0.80
  O       26     1.88   5.02   0.00   0.00   6.91    -0.91
  O       27     1.87   4.99   0.00   0.00   6.85    -0.85
  O       28     1.86   4.95   0.00   0.00   6.80    -0.80
  O       29     1.87   4.99   0.00   0.00   6.85    -0.85
  O       30     1.87   4.99   0.00   0.00   6.85    -0.85
  O       31     1.87   4.99   0.00   0.00   6.85    -0.85
  O       32     1.87   4.99   0.00   0.00   6.85    -0.85
  O       33     1.86   4.95   0.00   0.00   6.80    -0.80
  O       34     1.88   5.02   0.00   0.00   6.91    -0.91
  O       35     1.87   4.99   0.00   0.00   6.85    -0.85
  O       36     1.87   4.99   0.00   0.00   6.85    -0.85
  O       37     1.87   4.99   0.00   0.00   6.85    -0.85
  O       38     1.86   4.94   0.00   0.00   6.80    -0.80
  O       39     1.87   4.99   0.00   0.00   6.85    -0.85
  O       40     1.86   4.94   0.00   0.00   6.80    -0.80
  O       41     1.88   5.02   0.00   0.00   6.91    -0.91
  O       42     1.86   4.95   0.00   0.00   6.80    -0.80
  O       43     1.87   4.99   0.00   0.00   6.85    -0.85
  O       44     1.87   4.99   0.00   0.00   6.85    -0.85
  O       45     1.87   4.99   0.00   0.00   6.85    -0.85
  O       46     1.86   4.95   0.00   0.00   6.80    -0.80
  O       47     1.87   4.99   0.00   0.00   6.85    -0.85
  O       48     1.86   4.94   0.00   0.00   6.80    -0.80
  O       49     1.87   4.99   0.00   0.00   6.85    -0.85
  O       50     1.86   4.94   0.00   0.00   6.80    -0.80
  O       51     1.86   4.95   0.00   0.00   6.80    -0.80
  O       52     1.87   4.99   0.00   0.00   6.85    -0.85
  O       53     1.87   4.99   0.00   0.00   6.85    -0.85
  O       54     1.86   4.94   0.00   0.00   6.80    -0.80
  O       55     1.87   4.99   0.00   0.00   6.85    -0.85
  O       56     1.86   4.94   0.00   0.00   6.80    -0.80
  Zr       1     2.37   6.48   1.93   0.00  10.78     1.22
  Zr       2     2.37   6.49   1.92   0.00  10.78     1.22
  Zr       3     2.37   6.49   1.92   0.00  10.78     1.22
  Zr       4     2.37   6.49   1.92   0.00  10.78     1.22
  Zr       5     2.37   6.49   1.92   0.00  10.78     1.22
  Zr       6     2.37   6.48   1.93   0.00  10.78     1.22
  Zr       7     2.37   6.49   1.92   0.00  10.78     1.22
  Zr       8     2.37   6.49   1.92   0.00  10.78     1.22
  Zr       9     2.37   6.49   1.92   0.00  10.78     1.22
  Zr      10     2.37   6.49   1.92   0.00  10.78     1.22
  Sn       1     1.05   1.32  10.00   0.00  12.37     1.63
  Sn       2     1.05   1.32  10.00   0.00  12.37     1.63
  Sn       3     1.05   1.32  10.00   0.00  12.37     1.63
  Sn       4     1.05   1.32  10.00   0.00  12.37     1.63
  Sn       5     1.05   1.32  10.00   0.00  12.37     1.63
  Sn       6     1.05   1.32  10.00   0.00  12.37     1.63
  La       1     2.05   6.16   1.19   0.00   9.41     1.59
  La       2     2.09   6.17   1.19   0.00   9.45     1.55
  La       3     2.09   6.17   1.19   0.00   9.45     1.55
  La       4     2.00   6.14   1.19   0.00   9.33     1.67
  La       5     2.09   6.17   1.19   0.00   9.45     1.55
  La       6     2.09   6.17   1.19   0.00   9.45     1.55
  La       7     2.00   6.14   1.19   0.00   9.33     1.67
  La       8     2.05   6.16   1.19   0.00   9.41     1.59
  La       9     2.09   6.17   1.19   0.00   9.45     1.55
  La      10     2.09   6.17   1.19   0.00   9.45     1.55
  La      11     2.09   6.17   1.19   0.00   9.45     1.55
  La      12     2.09   6.17   1.19   0.00   9.45     1.55
  La      13     2.04   6.16   1.19   0.00   9.40     1.60
  La      14     2.03   6.17   1.19   0.00   9.39     1.61
  La      15     2.03   6.17   1.19   0.00   9.39     1.61
  La      16     2.04   6.16   1.19   0.00   9.40     1.60
==============================================================
 
            Bond              Population      Length (A)
============================================================
         O 52 -- Sn 4              0.35        2.09977
         O 45 -- Sn 5              0.35        2.09977
         O 27 -- Sn 5              0.35        2.09977
         O 9  -- Sn 4              0.35        2.09977
         O 37 -- Sn 1              0.35        2.10494
         O 21 -- Sn 2              0.35        2.10494
         O 47 -- Sn 1              0.35        2.10494
         O 18 -- Sn 2              0.35        2.10494
         O 49 -- Sn 1              0.35        2.10494
         O 53 -- Sn 2              0.35        2.10494
         O 55 -- Sn 2              0.35        2.10494
         O 39 -- Sn 1              0.35        2.10494
         O 29 -- Sn 3              0.35        2.10641
         O 13 -- Sn 3              0.35        2.10641
         O 22 -- Sn 3              0.35        2.10641
         O 43 -- Sn 3              0.35        2.10641
         O 36 -- Sn 6              0.35        2.10641
         O 32 -- Sn 6              0.35        2.10641
         O 17 -- Sn 6              0.35        2.10641
         O 16 -- Sn 6              0.35        2.10641
         O 15 -- Sn 5              0.34        2.10725
         O 44 -- Sn 4              0.34        2.10725
         O 14 -- Sn 4              0.34        2.10725
         O 24 -- Sn 4              0.34        2.10725
         O 19 -- Sn 5              0.34        2.10725
         O 31 -- Sn 5              0.34        2.10725
         O 35 -- Sn 5              0.34        2.10725
         O 30 -- Sn 4              0.34        2.10725
         O 41 -- Sn 6              0.33        2.11364
         O 26 -- Sn 6              0.33        2.11364
         O 12 -- Sn 3              0.33        2.11364
         O 34 -- Sn 3              0.33        2.11364
         O 42 -- Zr 2              0.41        2.11494
         O 28 -- Zr 8              0.41        2.11494
         O 10 -- Zr 5              0.41        2.11494
         O 33 -- Zr 9              0.41        2.11494
         O 28 -- Zr 4              0.41        2.11494
         O 42 -- Zr 10             0.41        2.11494
         O 33 -- Zr 3              0.41        2.11494
         O 10 -- Zr 7              0.41        2.11494
         O 41 -- Sn 1              0.33        2.11643
         O 26 -- Sn 2              0.33        2.11643
         O 12 -- Sn 2              0.33        2.11643
         O 34 -- Sn 1              0.33        2.11643
         O 43 -- Zr 2              0.45        2.11776
         O 13 -- Zr 10             0.45        2.11776
         O 22 -- Zr 8              0.45        2.11776
         O 29 -- Zr 4              0.45        2.11776
         O 16 -- Zr 5              0.45        2.11776
         O 36 -- Zr 3              0.45        2.11776
         O 32 -- Zr 9              0.45        2.11776
         O 17 -- Zr 7              0.45        2.11776
         O 35 -- Zr 2              0.46        2.11806
         O 14 -- Zr 4              0.46        2.11806
         O 19 -- Zr 8              0.46        2.11806
         O 30 -- Zr 10             0.46        2.11806
         O 31 -- Zr 5              0.46        2.11806
         O 44 -- Zr 3              0.46        2.11806
         O 24 -- Zr 7              0.46        2.11806
         O 15 -- Zr 9              0.46        2.11806
         O 9  -- Zr 6              0.46        2.11809
         O 52 -- Zr 1              0.46        2.11809
         O 45 -- Zr 1              0.46        2.11809
         O 27 -- Zr 6              0.46        2.11809
         O 40 -- Zr 6              0.42        2.11934
         O 54 -- Zr 1              0.42        2.11934
         O 48 -- Zr 1              0.42        2.11934
         O 23 -- Zr 6              0.42        2.11934
         O 20 -- Zr 6              0.42        2.11934
         O 50 -- Zr 1              0.42        2.11934
         O 38 -- Zr 6              0.42        2.11934
         O 56 -- Zr 1              0.42        2.11934
         O 38 -- Zr 2              0.43        2.12092
         O 50 -- Zr 10             0.43        2.12092
         O 56 -- Zr 8              0.43        2.12092
         O 48 -- Zr 9              0.43        2.12092
         O 20 -- Zr 4              0.43        2.12092
         O 23 -- Zr 5              0.43        2.12092
         O 40 -- Zr 3              0.43        2.12092
         O 54 -- Zr 7              0.43        2.12092
         O 21 -- Zr 9              0.45        2.12208
         O 39 -- Zr 7              0.45        2.12208
         O 47 -- Zr 5              0.45        2.12208
         O 53 -- Zr 3              0.45        2.12208
         O 49 -- Zr 4              0.45        2.12208
         O 18 -- Zr 10             0.45        2.12208
         O 55 -- Zr 2              0.45        2.12208
         O 37 -- Zr 8              0.45        2.12208
         O 25 -- Zr 10             0.42        2.12381
         O 46 -- Zr 4              0.42        2.12381
         O 11 -- Zr 8              0.42        2.12381
         O 51 -- Zr 2              0.42        2.12381
         O 46 -- Zr 3              0.42        2.12381
         O 25 -- Zr 7              0.42        2.12381
         O 11 -- Zr 9              0.42        2.12381
         O 51 -- Zr 5              0.42        2.12381
         O 4  -- La 4              0.20        2.35930
         O 8  -- La 4              0.20        2.35930
         O 7  -- La 7              0.20        2.35930
         O 2  -- La 7              0.20        2.35930
         O 7  -- La 16             0.18        2.35977
         O 2  -- La 13             0.18        2.35977
         O 4  -- La 16             0.18        2.35977
         O 8  -- La 13             0.18        2.35977
         O 3  -- La 14             0.19        2.36086
         O 6  -- La 14             0.19        2.36086
         O 5  -- La 15             0.19        2.36086
         O 1  -- La 15             0.19        2.36086
         O 6  -- La 1              0.18        2.36134
         O 3  -- La 8              0.18        2.36134
         O 1  -- La 1              0.18        2.36134
         O 5  -- La 8              0.18        2.36134
         O 2  -- La 2              0.17        2.36201
         O 7  -- La 11             0.17        2.36201
         O 2  -- La 12             0.17        2.36201
         O 7  -- La 3              0.17        2.36201
         O 8  -- La 5              0.17        2.36201
         O 8  -- La 10             0.17        2.36201
         O 4  -- La 6              0.17        2.36201
         O 4  -- La 9              0.17        2.36201
         O 3  -- La 5              0.16        2.36243
         O 1  -- La 10             0.16        2.36243
         O 6  -- La 9              0.16        2.36243
         O 5  -- La 6              0.16        2.36243
         O 6  -- La 12             0.16        2.36243
         O 5  -- La 2              0.16        2.36243
         O 3  -- La 3              0.16        2.36243
         O 1  -- La 11             0.16        2.36243
         O 54 -- La 3              0.12        2.65600
         O 23 -- La 11             0.12        2.65600
         O 48 -- La 6              0.12        2.65600
         O 40 -- La 9              0.12        2.65600
         O 56 -- La 2              0.12        2.65600
         O 20 -- La 12             0.12        2.65600
         O 50 -- La 5              0.12        2.65600
         O 38 -- La 10             0.12        2.65600
         O 10 -- La 13             0.12        2.66126
         O 42 -- La 16             0.12        2.66126
         O 33 -- La 13             0.12        2.66126
         O 28 -- La 16             0.12        2.66126
         O 53 -- La 9              0.17        2.66888
         O 39 -- La 3              0.17        2.66888
         O 21 -- La 6              0.17        2.66888
         O 47 -- La 11             0.17        2.66888
         O 18 -- La 5              0.17        2.66888
         O 49 -- La 12             0.17        2.66888
         O 55 -- La 10             0.17        2.66888
         O 37 -- La 2              0.17        2.66888
         O 25 -- La 8              0.13        2.67065
         O 46 -- La 1              0.13        2.67065
         O 11 -- La 8              0.13        2.67065
         O 51 -- La 1              0.13        2.67065
         O 17 -- La 10             0.17        2.67246
         O 16 -- La 5              0.17        2.67246
         O 32 -- La 12             0.17        2.67246
         O 36 -- La 2              0.17        2.67246
         O 13 -- La 11             0.17        2.67246
         O 22 -- La 9              0.17        2.67246
         O 29 -- La 6              0.17        2.67246
         O 43 -- La 3              0.17        2.67246
         O 25 -- La 15             0.14        2.67468
         O 51 -- La 14             0.14        2.67468
         O 46 -- La 15             0.14        2.67468
         O 11 -- La 14             0.14        2.67468
         O 33 -- La 4              0.13        2.67666
         O 10 -- La 7              0.13        2.67666
         O 42 -- La 4              0.13        2.67666
         O 28 -- La 7              0.13        2.67666
         O 34 -- La 3              0.24        2.67688
         O 34 -- La 11             0.24        2.67688
         O 12 -- La 9              0.24        2.67688
         O 12 -- La 6              0.24        2.67688
         O 41 -- La 12             0.24        2.67688
         O 26 -- La 5              0.24        2.67688
         O 26 -- La 10             0.24        2.67688
         O 41 -- La 2              0.24        2.67688
         O 30 -- La 11             0.18        2.67926
         O 24 -- La 10             0.18        2.67926
         O 44 -- La 2              0.18        2.67926
         O 19 -- La 9              0.18        2.67926
         O 31 -- La 5              0.18        2.67926
         O 14 -- La 6              0.18        2.67926
         O 35 -- La 3              0.18        2.67926
         O 15 -- La 12             0.18        2.67926
         O 54 -- La 7              0.14        2.68388
         O 40 -- La 4              0.14        2.68388
         O 48 -- La 4              0.14        2.68388
         O 23 -- La 7              0.14        2.68388
         O 50 -- La 4              0.14        2.68388
         O 20 -- La 7              0.14        2.68388
         O 38 -- La 4              0.14        2.68388
         O 56 -- La 7              0.14        2.68388
         O 27 -- La 9              0.18        2.68408
         O 45 -- La 3              0.18        2.68408
         O 52 -- La 6              0.18        2.68408
         O 9  -- La 11             0.18        2.68408
         O 27 -- La 12             0.18        2.68408
         O 52 -- La 2              0.18        2.68408
         O 9  -- La 10             0.18        2.68408
         O 45 -- La 5              0.18        2.68408
         O 53 -- La 1              0.18        2.68559
         O 39 -- La 8              0.18        2.68559
         O 21 -- La 8              0.18        2.68559
         O 47 -- La 1              0.18        2.68559
         O 49 -- La 1              0.18        2.68559
         O 18 -- La 8              0.18        2.68559
         O 55 -- La 1              0.18        2.68559
         O 37 -- La 8              0.18        2.68559
         O 44 -- La 13             0.18        2.68611
         O 24 -- La 13             0.18        2.68611
         O 30 -- La 16             0.18        2.68611
         O 19 -- La 16             0.18        2.68611
         O 35 -- La 16             0.18        2.68611
         O 31 -- La 13             0.18        2.68611
         O 15 -- La 13             0.18        2.68611
         O 14 -- La 16             0.18        2.68611
         O 32 -- La 14             0.19        2.68898
         O 17 -- La 15             0.19        2.68898
         O 16 -- La 14             0.19        2.68898
         O 36 -- La 15             0.19        2.68898
         O 22 -- La 14             0.19        2.68898
         O 13 -- La 15             0.19        2.68898
         O 43 -- La 14             0.19        2.68898
         O 29 -- La 15             0.19        2.68898
         O 12 -- O 22             -0.06        2.79810
         O 12 -- O 29             -0.06        2.79810
         O 13 -- O 34             -0.06        2.79810
         O 34 -- O 43             -0.06        2.79810
         O 36 -- O 41             -0.06        2.79810
         O 16 -- O 26             -0.06        2.79810
         O 17 -- O 26             -0.06        2.79810
         O 32 -- O 41             -0.06        2.79810
         O 12 -- O 21             -0.06        2.79986
         O 12 -- O 53             -0.06        2.79986
         O 34 -- O 39             -0.06        2.79986
         O 34 -- O 47             -0.06        2.79986
         O 37 -- O 41             -0.06        2.79986
         O 41 -- O 49             -0.06        2.79986
         O 18 -- O 26             -0.06        2.79986
         O 26 -- O 55             -0.06        2.79986
         O 9  -- O 24             -0.06        2.80012
         O 15 -- O 27             -0.06        2.80012
         O 31 -- O 45             -0.06        2.80012
         O 44 -- O 52             -0.06        2.80012
         O 14 -- O 52             -0.06        2.80012
         O 9  -- O 30             -0.06        2.80012
         O 35 -- O 45             -0.06        2.80012
         O 19 -- O 27             -0.06        2.80012
         O 37 -- O 39             -0.06        2.80657
         O 18 -- O 21             -0.06        2.80657
         O 47 -- O 49             -0.06        2.80657
         O 53 -- O 55             -0.06        2.80657
         O 39 -- O 54             -0.03        2.81118
         O 40 -- O 53             -0.03        2.81118
         O 23 -- O 47             -0.03        2.81118
         O 21 -- O 48             -0.03        2.81118
         O 38 -- O 55             -0.03        2.81118
         O 18 -- O 50             -0.03        2.81118
         O 20 -- O 49             -0.03        2.81118
         O 37 -- O 56             -0.03        2.81118
         O 24 -- O 44             -0.06        2.81148
         O 15 -- O 31             -0.06        2.81148
         O 14 -- O 30             -0.06        2.81148
         O 19 -- O 35             -0.06        2.81148
         O 13 -- O 29             -0.06        2.81446
         O 22 -- O 43             -0.06        2.81446
         O 17 -- O 36             -0.06        2.81446
         O 16 -- O 32             -0.06        2.81446
         O 45 -- O 54             -0.03        2.81535
         O 27 -- O 40             -0.03        2.81535
         O 9  -- O 23             -0.03        2.81535
         O 48 -- O 52             -0.03        2.81535
         O 20 -- O 27             -0.03        2.81535
         O 52 -- O 56             -0.03        2.81535
         O 45 -- O 50             -0.03        2.81535
         O 9  -- O 38             -0.03        2.81535
         O 19 -- O 28             -0.03        2.81647
         O 35 -- O 42             -0.03        2.81647
         O 10 -- O 31             -0.03        2.81647
         O 14 -- O 28             -0.03        2.81647
         O 30 -- O 42             -0.03        2.81647
         O 15 -- O 33             -0.03        2.81647
         O 33 -- O 44             -0.03        2.81647
         O 10 -- O 24             -0.03        2.81647
         O 16 -- O 31             -0.03        2.82128
         O 17 -- O 24             -0.03        2.82128
         O 15 -- O 32             -0.03        2.82128
         O 36 -- O 44             -0.03        2.82128
         O 13 -- O 30             -0.03        2.82128
         O 35 -- O 43             -0.03        2.82128
         O 19 -- O 22             -0.03        2.82128
         O 14 -- O 29             -0.03        2.82128
         O 38 -- O 42             -0.03        2.82518
         O 28 -- O 56             -0.03        2.82518
         O 42 -- O 50             -0.03        2.82518
         O 20 -- O 28             -0.03        2.82518
         O 33 -- O 48             -0.03        2.82518
         O 33 -- O 40             -0.03        2.82518
         O 10 -- O 23             -0.03        2.82518
         O 10 -- O 54             -0.03        2.82518
         O 46 -- O 49             -0.03        2.82703
         O 18 -- O 25             -0.03        2.82703
         O 51 -- O 55             -0.03        2.82703
         O 11 -- O 37             -0.03        2.82703
         O 46 -- O 53             -0.03        2.82703
         O 11 -- O 21             -0.03        2.82703
         O 25 -- O 39             -0.03        2.82703
         O 47 -- O 51             -0.03        2.82703
         O 54 -- O 56             -0.03        2.82948
         O 48 -- O 50             -0.03        2.82948
         O 20 -- O 23             -0.03        2.82948
         O 38 -- O 40             -0.03        2.82948
         O 43 -- O 51             -0.03        2.83012
         O 13 -- O 25             -0.03        2.83012
         O 11 -- O 32             -0.03        2.83012
         O 11 -- O 22             -0.03        2.83012
         O 36 -- O 46             -0.03        2.83012
         O 16 -- O 51             -0.03        2.83012
         O 29 -- O 46             -0.03        2.83012
         O 17 -- O 25             -0.03        2.83012
============================================================
 

Writing analysis data to 043.castep_bin

Writing model to 043.check
 
 A BibTeX formatted list of references used in this run has been written to 
 043.bib
 
Initialisation time =     54.17 s
Calculation time    =  33315.24 s
Finalisation time   =     71.78 s
Total time          =  33441.19 s
Peak Memory Use     = 2839600 kB
  
Overall parallel efficiency rating: Good (77%)                                  
  
Data was distributed by:-
G-vector (4-way); efficiency rating: Good (78%)                                 
k-point (14-way); efficiency rating: Excellent (99%)                            
