 +-------------------------------------------------+
 |                                                 |
 |      CCC   AA    SSS  TTTTT  EEEEE  PPPP        |
 |     C     A  A  S       T    E      P   P       |
 |     C     AAAA   SS     T    EEE    PPPP        |
 |     C     A  A     S    T    E      P           |
 |      CCC  A  A  SSS     T    EEEEE  P           |
 |                                                 |
 +-------------------------------------------------+
 |                                                 |
 | Welcome to Academic Release CASTEP version 16.11|          
 | Ab Initio Total Energy Program                  |
 |                                                 |
 | Authors:                                        |
 | M. Segall, M. Probert, C. Pickard, P. Hasnip,   |
 | S. Clark, K. Refson, J. R. Yates, M. Payne      |
 |                                                 |
 | Contributors:                                   |
 | P. Lindan, P. Haynes, J. White, V. Milman,      |
 | N. Govind, M. Gibson, P. Tulip, V. Cocula,      |
 | B. Montanari, D. Quigley, M. Glover,            |
 | L. Bernasconi, A. Perlov, M. Plummer,           |
 | E. McNellis, J. Meyer, J. Gale, D. Jochym       |
 | J. Aarons, B. Walker, R. Gillen, D. Jones       |
 | T. Green, I. J. Bush, C. J. Armstrong,          |
 | E. J. Higgins, E. L. Brown, M. S. McFly         |
 |                                                 |
 | Copyright (c) 2000 - 2015                       |
 |                                                 |
 |     Distributed under the terms of an           |
 |     Agreement between the United Kingdom        |
 |     Car-Parrinello (UKCP) Consortium,           |
 |     Daresbury Laboratory and Accelrys, Inc.     |
 |                                                 |
 | Please cite                                     |
 |                                                 |
 |     "First principles methods using CASTEP"     |
 |                                                 |
 |         Zeitschrift fuer Kristallographie       |
 |           220(5-6) pp. 567-570 (2005)           |
 |                                                 |
 | S. J. Clark, M. D. Segall, C. J. Pickard,       |
 | P. J. Hasnip, M. J. Probert, K. Refson,         |
 | M. C. Payne                                     |
 |                                                 |
 |       in all publications arising from          |
 |              your use of CASTEP                 |
 |                                                 |
 +-------------------------------------------------+
 
 
 Compiled for linux_x86_64_ifort16 on Sat, 23 Jul 2016 23:44:54 +0100
 from code version 
 203e84763863+ Castep161_branch Fri, 04 Mar 2016 19:21:07 +0000
 Compiler: Intel Fortran 16.0.3.210; Optimisation: fast
 MATHLIBS: Intel MKL(11.3.3) (LAPACK version 3.6.0)
 FFT Lib : mkl
 Fundamental constants values: CODATA 2010
 
 Run started: Thu, 15 Mar 2018 02:01:51 +0000
 +-------------------------------------------------+
 |                                                 |
 |           N   N    M   M    RRRR                |
 |           NN  N    MM MM    R   R               |
 |           N N N    M M M    RRRR                |
 |           N  NN    M   M    R  R                |
 |           N   N    M   M    R   R               |
 |                                                 |
 +-------------------------------------------------+
 |                                                 |
 | Welcome to Materials Studio CASTEP-NMR          |
 |                                                 |
 | Authors:                                        |
 | J.R. Yates, C.J. Pickard, F. Mauri              |
 |                                                 |
 | Contributors:                                   |
 | T.F.G. Green, S.A. Joyce                        |
 |                                                 |
 | Copyright (c) 2004 - 2015                       |
 |                                                 |
 | Please cite the appropriate publications in all |
 | work arising from your use of CASTEP NMR.       |
 |                                                 |
 | For NMR Shielding Tensors cite:                 |
 |    "All-electron magnetic response with         |
 |    pseudopotentials: NMR chemical shifts",      |
 |    C. J. Pickard, F. Mauri;                     |
 |    Physical Review B63 245101 (2001), and       |
 |                                                 |
 |    "Calculation of NMR Chemical Shifts          |
 |    for extended systems using                   |
 |    Ultrasoft Pseudopotentials",                 |
 |    J. R. Yates, C. J. Pickard and F. Mauri      |
 |    Physical Review B76 024401 (2007)            |
 |                                                 |
 | For Electric Field Gradients cite:              |
 |   "Accurate First Principles Prediction of 17O  |
 |    NMR Parameters in SiO2: Assignment of the    |
 |    Zeolite Ferrierite Spectrum"                 |
 |    M. Profeta, F. Mauri and C. J. Pickard       |
 |    J. Amer. Chem. Soc. 125 541 (2003)           |
 |                                                 |
 | For Spin-Spin (J) Couplings cite:               |
 |   "A first principles theory of NMR J-coupling  |
 |   in solid-state systems"                       |
 |   S.A. Joyce, J.R. Yates, C.J. Pickard, F. Mauri|
 |   J. Chem. Phys. 127 204107 (2007)              |
 |                                                 |
 |   "Relativistic NMR J-coupling with ultrasoft   |
 |   pseudopotentials and the zeroth-order regular |
 |   approximation"                                |
 |   T.F.G. Green and J.R. Yates                   |
 |   J. Chem. Phys. 140 234106 (2014)              |
 |                                                 |
 +-------------------------------------------------+
 
 
 Atomic calculation performed for O: 1s2 2s2 2p4
 
 Converged in 44 iterations to an ae energy of -2040.855 eV
 
 
 Atomic calculation performed for O: 1s2 2s2 2p4
 
 Exceeded max iterations: converged to 0.000000062 eV
 
   ============================================================                
   | Pseudopotential Report - Date of generation 15-03-2018   |                
   ------------------------------------------------------------                
   | Element: O Ionic charge:  6.00 Level of theory: PBE      |                
   | Atomic Solver: ZORA (scalar)                             |                
   |                                                          |                
   |               Reference Electronic Structure             |                
   |         Orbital         Occupation         Energy        |                
   |            2s              2.000           -0.881        |                
   |            2p              4.000           -0.332        |                
   |                                                          |                
   |                 Pseudopotential Definition               |                
   |        Beta     l      e      Rc     scheme   norm       |                
   |          1      0   -0.881   1.100     qc      0         |                
   |          2      0    0.250   1.100     qc      0         |                
   |          3      1   -0.332   1.100     qc      0         |                
   |          4      1    0.250   1.100     qc      0         |                
   |         loc     2    0.000   1.100     pn      0         |                
   |                                                          |                
   | Augmentation charge Rinner = 0.769                       |                
   | Partial core correction Rc = 0.769                       |                
   ------------------------------------------------------------                
   | "2|1.1|15|18|20|20:21(qc=7)"                             |                
   ------------------------------------------------------------                
   |      Author: Chris J. Pickard, Cambridge University      |                
   ============================================================                
 
 Atomic calculation performed for Zr: 1s2 2s2 2p6 3s2 3p6 3d10 4s2 4p6 4d2 5s2
 
 Converged in 53 iterations to an ae energy of -97719.888 eV
 
 
 Atomic calculation performed for Zr: 1s2 2s2 2p6 3s2 3p6 3d10 4s2 4p6 4d2 5s2
 
 Exceeded max iterations: converged to 0.000000970 eV
 
 Warning: ion_atom_descreen_psp: negative charge density encountered
   ============================================================                
   | Pseudopotential Report - Date of generation 15-03-2018   |                
   ------------------------------------------------------------                
   | Element: Zr Ionic charge: 12.00 Level of theory: PBE     |                
   | Atomic Solver: ZORA (scalar)                             |                
   |                                                          |                
   |               Reference Electronic Structure             |                
   |         Orbital         Occupation         Energy        |                
   |            4s              2.000           -2.003        |                
   |            4p              6.000           -1.193        |                
   |            5s              2.000           -0.163        |                
   |            4d              2.000           -0.132        |                
   |                                                          |                
   |                 Pseudopotential Definition               |                
   |        Beta     l      e      Rc     scheme   norm       |                
   |          1      0   -2.003   2.105     qc      0         |                
   |          2      0   -0.163   2.105     qc      0         |                
   |          3      0    0.250   2.105     qc      0         |                
   |          4      1   -1.193   2.105     qc      0         |                
   |          5      1    0.250   2.105     qc      0         |                
   |          6      2   -0.132   2.105     qc      0         |                
   |          7      2    0.250   2.105     qc      0         |                
   |         loc     3    0.000   2.105     pn      0         |                
   |                                                          |                
   | Augmentation charge Rinner = 1.471                       |                
   | Partial core correction Rc = 1.471                       |                
   ------------------------------------------------------------                
   | "3|2.1|7|8|9|40U:50:41:42"                               |                
   ------------------------------------------------------------                
   |      Author: Chris J. Pickard, Cambridge University      |                
   ============================================================                
 
 Atomic calculation performed for Sn:
 1s2 2s2 2p6 3s2 3p6 3d10 4s2 4p6 4d10 5s2 5p2
 
 Converged in 58 iterations to an ae energy of -167539.320 eV
 
 
 Atomic calculation performed for Sn:
 1s2 2s2 2p6 3s2 3p6 3d10 4s2 4p6 4d10 5s2 5p2
 
 Exceeded max iterations: converged to 0.000001154 eV
 
   ============================================================                
   | Pseudopotential Report - Date of generation 15-03-2018   |                
   ------------------------------------------------------------                
   | Element: Sn Ionic charge: 14.00 Level of theory: PBE     |                
   | Atomic Solver: ZORA (scalar)                             |                
   |                                                          |                
   |               Reference Electronic Structure             |                
   |         Orbital         Occupation         Energy        |                
   |            4d             10.000           -0.950        |                
   |            5s              2.000           -0.388        |                
   |            5p              2.000           -0.136        |                
   |                                                          |                
   |                 Pseudopotential Definition               |                
   |        Beta     l      e      Rc     scheme   norm       |                
   |          1      0   -0.388   2.199     qc      0         |                
   |          2      0    0.250   2.199     qc      0         |                
   |          3      1   -0.136   2.199     qc      0         |                
   |          4      1    0.250   2.199     qc      0         |                
   |          5      2   -0.950   2.199     qc      0         |                
   |          6      2    0.250   2.199     qc      0         |                
   |         loc     3    0.000   2.199     pn      0         |                
   |                                                          |                
   | Augmentation charge Rinner = 1.537                       |                
   | Partial core correction Rc = 1.537                       |                
   ------------------------------------------------------------                
   | "3|2.2|7|8|9|50:51:42"                                   |                
   ------------------------------------------------------------                
   |      Author: Chris J. Pickard, Cambridge University      |                
   ============================================================                
 
 Atomic calculation performed for La:
 1s2 2s2 2p6 3s2 3p6 3d10 4s2 4p6 4d10 5s2 5p6 5d1 6s2
 
 Converged in 56 iterations to an ae energy of -230121.495 eV
 
 
 Atomic calculation performed for La:
 1s2 2s2 2p6 3s2 3p6 3d10 4s2 4p6 4d10 5s2 5p6 5d1 6s2
 
 Exceeded max iterations: converged to 0.000000907 eV
 
 Warning: ion_atom_descreen_psp: negative charge density encountered
   ============================================================                
   | Pseudopotential Report - Date of generation 15-03-2018   |                
   ------------------------------------------------------------                
   | Element: La Ionic charge: 11.00 Level of theory: PBE     |                
   | Atomic Solver: ZORA (scalar)                             |                
   |                                                          |                
   |               Reference Electronic Structure             |                
   |         Orbital         Occupation         Energy        |                
   |            5s              2.000           -1.430        |                
   |            5p              6.000           -0.823        |                
   |            6s              2.000           -0.135        |                
   |            5d              1.000           -0.114        |                
   |                                                          |                
   |                 Pseudopotential Definition               |                
   |        Beta     l      e      Rc     scheme   norm       |                
   |          1      0   -1.430   2.298     qc      0         |                
   |          2      0   -0.135   2.298     qc      0         |                
   |          3      0    0.250   2.298     qc      0         |                
   |          4      1   -0.823   2.298     qc      0         |                
   |          5      1    0.250   2.298     qc      0         |                
   |          6      2   -0.114   2.298     qc      0         |                
   |          7      2    0.250   2.298     qc      0         |                
   |         loc     2    0.000   2.298     pn      0         |                
   |                                                          |                
   | Augmentation charge Rinner = 1.606                       |                
   | Partial core correction Rc = 1.606                       |                
   ------------------------------------------------------------                
   | "2|2.3|5|6|7|50U:60:51:52(qc=4.5)"                       |                
   ------------------------------------------------------------                
   |      Author: Chris J. Pickard, Cambridge University      |                
   ============================================================                
 
 Pseudo atomic calculation performed for O 2s2 2p4
 
 Converged in 39 iterations to a total energy of -432.6554 eV
 
 
 Pseudo atomic calculation performed for Zr 4s2 4p6 4d2 5s2
 
 Converged in 38 iterations to a total energy of -1285.4931 eV
 
 
 Pseudo atomic calculation performed for Sn 4d10 5s2 5p2
 
 Converged in 48 iterations to a total energy of -2044.5414 eV
 
 
 Pseudo atomic calculation performed for La 5s2 5p6 5d1 6s2
 
 Converged in 34 iterations to a total energy of -968.0372 eV
 
 Calculation parallelised over 56 processes.
 Data is distributed by G-vector(4-way) and k-point(14-way)

 ************************************ Title ************************************
 nmr testing

 ***************************** General Parameters ******************************
  
 output verbosity                               : normal  (1)
 write checkpoint data to                       : 052.check
 type of calculation                            : Magnetic Resonance
 stress calculation                             : on
 density difference calculation                 : off
 electron localisation func (ELF) calculation   : off
 Hirshfeld analysis                             : off
 unlimited duration calculation
 timing information                             : on
 memory usage estimate                          : on
 write final potential to formatted file        : off
 write final density to formatted file          : off
 write structure in CIF formatted file          : on
 write structure in CELL formatted file         : on
 write BibTeX reference list                    : on
 write OTFG pseudopotential files               : on
 checkpoint writing                             : both castep_bin and check files
  
 output         length unit                     : A
 output           mass unit                     : amu
 output           time unit                     : ps
 output         charge unit                     : e
 output           spin unit                     : hbar/2
 output         energy unit                     : eV
 output          force unit                     : eV/A
 output       velocity unit                     : A/ps
 output       pressure unit                     : GPa
 output     inv_length unit                     : 1/A
 output      frequency unit                     : cm-1
 output force constant unit                     : eV/A**2
 output         volume unit                     : A**3
 output   IR intensity unit                     : (D/A)**2/amu
 output         dipole unit                     : D
 output         efield unit                     : eV/A/e
 output        entropy unit                     : J/mol/K
  
 wavefunctions paging                           : none
 random number generator seed                   : randomised (20153533)
 data distribution                              : optimal for this architecture
 optimization strategy                          : maximize speed(+++)

 *********************** Exchange-Correlation Parameters ***********************
  
 using functional                               : Perdew Burke Ernzerhof
 relativistic treatment                         : ZORA
 DFT+D: Semi-empirical dispersion correction    : off

 ************************* Pseudopotential Parameters **************************
  
 pseudopotential representation                 : reciprocal space
 <beta|phi> representation                      : reciprocal space
 spin-orbit coupling                            : off

 **************************** Basis Set Parameters *****************************
  
 plane wave basis set cut-off                   :   816.3416   eV
 size of standard grid                          :     1.7500
 size of   fine   gmax                          :    25.6161   1/A
 finite basis set correction                    : automatic
 number of sample energies                      :          3
           sample  spacing                      :     5.0000   eV

 **************************** Electronic Parameters ****************************
  
 number of  electrons                           :  716.0    
 net charge of system                           :  0.000    
 treating system as non-spin-polarized
 number of bands                                :        430

 ********************* Electronic Minimization Parameters **********************
  
 Method: Treating system as metallic with density mixing treatment of electrons,
         and number of  SD  steps               :          1
         and number of  CG  steps               :          4
  
 total energy / atom convergence tol.           : 0.1000E-08   eV
 eigen-energy convergence tolerance             : 0.2458E-09   eV
 max force / atom convergence tol.              : ignored
 convergence tolerance window                   :          3   cycles
 max. number of SCF cycles                      :         50
 number of fixed-spin iterations                :         10
 smearing scheme                                : Gaussian
 smearing width                                 : 0.2000       eV
 Fermi energy convergence tolerance             : 0.2721E-13   eV
 periodic dipole correction                     : NONE

 ************************** Density Mixing Parameters **************************
  
 density-mixing scheme                          : Broyden
 max. length of mixing history                  :         20
 charge density mixing amplitude                : 0.8000    
 cut-off energy for mixing                      :  816.3       eV

 *********************** Population Analysis Parameters ************************
  
 Population analysis with cutoff                :  3.000       A

 ************************ Magnetic Resonance Parameters ************************
  
 Magnetic Resonance Property                    : Chemical Shielding + EFG
 Position Operator Method                       : crystal
 max. number of MagRes CG steps                 :        250
 convergence tolerance window                   :          2   cycles
 energy convergence tolerance                   : 0.1000E-11   eV
 band convergence tolerance                     : 0.1000E-08   eV

 *******************************************************************************
  
 
                           -------------------------------
                                      Unit Cell
                           -------------------------------
        Real Lattice(A)                      Reciprocal Lattice(1/A)
  10.9059251   0.0079394  -0.0027903        0.5761262  -0.0004193   0.0001473
   0.0079391  10.9069323  -0.0045857       -0.0004193   0.5760730   0.0002423
  -0.0027916  -0.0045885  10.9047690        0.0001472   0.0002421   0.5761871
 
                       Lattice parameters(A)       Cell Angles
                    a =   10.905928          alpha =   90.048209
                    b =   10.906936          beta  =   90.029345
                    c =   10.904770          gamma =   89.916578
 
                       Current cell volume = 1297.123307       A**3
 
                           -------------------------------
                                     Cell Contents
                           -------------------------------
                         Total number of ions in cell =   88
                      Total number of species in cell =    4
                        Max number of any one species =   56
 
            xxxxxxxxxxxxxxxxxxxxxxxxxxxxxxxxxxxxxxxxxxxxxxxxxxxxxxxxxxxx
            x  Element    Atom        Fractional coordinates of atoms  x
            x            Number           u          v          w      x
            x----------------------------------------------------------x
            x  O            1         0.125148   0.124781   0.124912   x 
            x  O            2         0.625029   0.125016   0.624731   x 
            x  O            3         0.125102   0.625081   0.625053   x 
            x  O            4         0.624791   0.625124   0.125268   x 
            x  O            5         0.874874   0.374800   0.374928   x 
            x  O            6         0.874827   0.875293   0.875147   x 
            x  O            7         0.375204   0.374801   0.875119   x 
            x  O            8         0.374909   0.875099   0.375218   x 
            x  O            9         0.420171   0.125454   0.124766   x 
            x  O           10         0.330415   0.124526   0.624436   x 
            x  O           11         0.829302   0.623657   0.625419   x 
            x  O           12         0.919529   0.624953   0.124138   x 
            x  O           13         0.124811   0.419348   0.124220   x 
            x  O           14         0.624465   0.329736   0.124569   x 
            x  O           15         0.624580   0.829633   0.625337   x 
            x  O           16         0.126069   0.920151   0.623872   x 
            x  O           17         0.125029   0.124879   0.419672   x 
            x  O           18         0.125073   0.625033   0.330006   x 
            x  O           19         0.625841   0.624924   0.830387   x 
            x  O           20         0.625538   0.124733   0.919906   x 
            x  O           21         0.876331   0.670637   0.374284   x 
            x  O           22         0.874514   0.580773   0.875752   x 
            x  O           23         0.374429   0.080076   0.875188   x 
            x  O           24         0.374868   0.169655   0.375182   x 
            x  O           25         0.170763   0.376277   0.374347   x 
            x  O           26         0.079165   0.873631   0.374308   x 
            x  O           27         0.578826   0.873635   0.874355   x 
            x  O           28         0.670223   0.376071   0.874659   x 
            x  O           29         0.875845   0.375918   0.079779   x 
            x  O           30         0.373277   0.375556   0.171434   x 
            x  O           31         0.375968   0.874275   0.670987   x 
            x  O           32         0.874462   0.875455   0.579966   x 
            x  O           33         0.669596   0.875119   0.375548   x 
            x  O           34         0.080423   0.375189   0.875664   x 
            x  O           35         0.376240   0.670762   0.874558   x 
            x  O           36         0.874583   0.080081   0.375705   x 
            x  O           37         0.874774   0.375165   0.669918   x 
            x  O           38         0.374692   0.874855   0.080329   x 
            x  O           39         0.123598   0.328973   0.625618   x 
            x  O           40         0.625893   0.920511   0.124234   x 
            x  O           41         0.920815   0.126400   0.625627   x 
            x  O           42         0.329708   0.624265   0.124982   x 
            x  O           43         0.124534   0.623982   0.920191   x 
            x  O           44         0.624791   0.124784   0.330116   x 
            x  O           45         0.421025   0.625976   0.624938   x 
            x  O           46         0.829928   0.124718   0.124709   x 
            x  O           47         0.124441   0.126634   0.829037   x 
            x  O           48         0.624947   0.624912   0.419508   x 
            x  O           49         0.875480   0.170276   0.874522   x 
            x  O           50         0.373388   0.579249   0.374758   x 
            x  O           51         0.169818   0.875566   0.875419   x 
            x  O           52         0.580147   0.374540   0.375712   x 
            x  O           53         0.875712   0.873443   0.171422   x 
            x  O           54         0.374828   0.375303   0.580019   x 
            x  O           55         0.124632   0.829999   0.125350   x 
            x  O           56         0.626291   0.420386   0.625476   x 
            x  Zr           1         0.500120   0.500136   0.500022   x 
            x  Zr           2         0.249728   0.749657   0.000127   x 
            x  Zr           3         0.750475   0.999556   0.250743   x 
            x  Zr           4         0.750923   0.250958   0.999496   x 
            x  Zr           5         0.250404   0.000223   0.749635   x 
            x  Zr           6         0.499884   0.999792   0.999695   x 
            x  Zr           7         0.249659   0.250070   0.499902   x 
            x  Zr           8         0.749704   0.749508   0.499987   x 
            x  Zr           9         0.499392   0.250079   0.250721   x 
            x  Zr          10         0.000012  -0.000005   0.499989   x 
            x  Sn           1         0.998898   0.251174   0.751157   x 
            x  Sn           2         0.001133   0.748847   0.248778   x 
            x  Sn           3         0.750481   0.499575   0.750679   x 
            x  Sn           4         0.248716   0.500959   0.248806   x 
            x  Sn           5         0.999963   0.500050   0.999896   x 
            x  Sn           6         0.500994   0.749380   0.749423   x 
            x  La           1         0.000126   0.000005   0.999902   x 
            x  La           2         0.749741   0.249856   0.499608   x 
            x  La           3         0.250451   0.499931   0.749781   x 
            x  La           4         0.499966   0.750179   0.250100   x 
            x  La           5         0.249959   0.750378   0.500369   x 
            x  La           6         0.749378   0.499754   0.250241   x 
            x  La           7         0.499880   0.249772   0.749898   x 
            x  La           8         0.999876   0.499997   0.500050   x 
            x  La           9         0.749690   0.750480   0.000358   x 
            x  La          10         0.250144   0.000040   0.249947   x 
            x  La          11         0.250430   0.249484   0.999966   x 
            x  La          12         0.750110   0.000153   0.749851   x 
            x  La          13         0.500007   0.000171   0.499835   x 
            x  La          14         0.000209   0.750627   0.749925   x 
            x  La          15         0.999802   0.249369   0.250113   x 
            x  La          16         0.500083   0.499777   0.000297   x 
            xxxxxxxxxxxxxxxxxxxxxxxxxxxxxxxxxxxxxxxxxxxxxxxxxxxxxxxxxxxx
 
 
                         No user defined ionic velocities
 
                           -------------------------------
                                   Details of Species
                           -------------------------------
 
                               Mass of species in AMU
                                    O   15.9994000
                                    Zr   91.2240000
                                    Sn  118.7100000
                                    La  138.9055000
 
                          Electric Quadrupole Moment (Barn)
                                    O   -0.0255800 Isotope 17
                                    Zr   -0.1760000 Isotope 91
                                    Sn    1.0000000 No Isotope Defined
                                    La    0.2000000 Isotope139
 
                          Files used for pseudopotentials:
                                    O 2|1.1|15|18|20|20:21(qc=7)
                                    Zr 3|2.1|7|8|9|40U:50:41:42
                                    Sn 3|2.2|7|8|9|50:51:42
                                    La 2|2.3|5|6|7|50U:60:51:52(qc=4.5)
 
                           -------------------------------
                              k-Points For BZ Sampling
                           -------------------------------
                       MP grid size for SCF calculation is  3  3  3
                            with an offset of   0.000  0.000  0.000
                       Number of kpoints used =            14
 
                           -------------------------------
                               Symmetry and Constraints
                           -------------------------------
 
                      Maximum deviation from symmetry =  0.00000         ANG
 
         There are no symmetry operations specified or generated for this cell
                      Number of ionic constraints     =           3
                      Point group of crystal =     1: C1, 1, 1
                      Space group of crystal =     1: P1, P 1
 
 
                         Centre of mass is constrained
             Set iprint > 1 for details of linear ionic constraints
 
                         Number of cell constraints= 0
                         Cell constraints are:  1 2 3 4 5 6
 
                         External pressure/stress (GPa)
                          0.00000   0.00000   0.00000
                                    0.00000   0.00000
                                              0.00000
  
+---------------- MEMORY AND SCRATCH DISK ESTIMATES PER PROCESS --------------+
|                                                     Memory          Disk    |
| Baseline code, static data and system overhead      322.0 MB         0.0 MB |
| BLAS internal memory storage                          0.0 MB         0.0 MB |
| Model and support data                             1319.7 MB         0.0 MB |
| Electronic energy minimisation requirements         380.7 MB         0.0 MB |
| Force calculation requirements                       24.1 MB         0.0 MB |
| Stress calculation requirements                      28.3 MB         0.0 MB |
|                                               ----------------------------- |
| Approx. total storage required per process         2022.4 MB         0.0 MB |
|                                                                             |
| Requirements will fluctuate during execution and may exceed these estimates |
+-----------------------------------------------------------------------------+
Calculating finite basis set correction with  3 cut-off energies.
Calculating total energy with cut-off of  806.342eV.
------------------------------------------------------------------------ <-- SCF
SCF loop      Energy           Fermi           Energy gain       Timer   <-- SCF
                               energy          per atom          (sec)   <-- SCF
------------------------------------------------------------------------ <-- SCF
Initial  -5.43692854E+004  0.00000000E+000                        75.66  <-- SCF
      1  -6.30184989E+004  7.66422119E+000   9.82865175E+001     217.21  <-- SCF
      2  -6.55940746E+004  7.09182331E+000   2.92679051E+001     309.86  <-- SCF
      3  -6.56722717E+004  6.75697993E+000   8.88603844E-001     414.63  <-- SCF
      4  -6.56684477E+004  7.72989060E+000  -4.34549964E-002     544.92  <-- SCF
      5  -6.55601644E+004  7.25806641E+000  -1.23049141E+000     677.85  <-- SCF
      6  -6.55617519E+004  7.16714822E+000   1.80396871E-002     836.78  <-- SCF
      7  -6.55614895E+004  7.24432601E+000  -2.98156451E-003     972.34  <-- SCF
      8  -6.55615490E+004  7.24804254E+000   6.76206284E-004    1141.62  <-- SCF
      9  -6.55615689E+004  7.24749956E+000   2.25299559E-004    1289.82  <-- SCF
     10  -6.55615699E+004  7.24437672E+000   1.16221038E-005    1433.19  <-- SCF
     11  -6.55615691E+004  7.24572554E+000  -9.30804018E-006    1577.13  <-- SCF
     12  -6.55615693E+004  7.24543120E+000   3.01368612E-006    1732.20  <-- SCF
     13  -6.55615694E+004  7.24475865E+000   2.93609923E-007    1867.60  <-- SCF
     14  -6.55615693E+004  7.24446230E+000  -3.82346909E-007    2002.12  <-- SCF
     15  -6.55615693E+004  7.24399362E+000  -8.66706186E-008    2148.75  <-- SCF
     16  -6.55615693E+004  7.24374386E+000  -9.39603499E-010    2275.97  <-- SCF
     17  -6.55615693E+004  7.24366370E+000   1.28678713E-009    2396.85  <-- SCF
     18  -6.55615693E+004  7.24360568E+000  -4.52787080E-010    2495.60  <-- SCF
     19  -6.55615693E+004  7.24357223E+000   2.12331829E-010    2589.24  <-- SCF
------------------------------------------------------------------------ <-- SCF
 
Final energy, E             =  -65561.56932600     eV
Final free energy (E-TS)    =  -65561.56932600     eV
(energies not corrected for finite basis set)
 
NB est. 0K energy (E-0.5TS)      =  -65561.56932600     eV
 
Calculating total energy with cut-off of  811.342eV.
------------------------------------------------------------------------ <-- SCF
SCF loop      Energy           Fermi           Energy gain       Timer   <-- SCF
                               energy          per atom          (sec)   <-- SCF
------------------------------------------------------------------------ <-- SCF
Initial  -6.55615693E+004  0.00000000E+000                      2625.79  <-- SCF
      1  -6.55615718E+004  7.24357537E+000   2.80289228E-005    2737.08  <-- SCF
      2  -6.55615718E+004  7.24357537E+000   2.05441591E-010    2827.07  <-- SCF
      3  -6.55615718E+004  7.24356405E+000   1.65194163E-008    2918.19  <-- SCF
      4  -6.55615718E+004  7.24357476E+000   4.14820461E-010    3008.18  <-- SCF
      5  -6.55615718E+004  7.24357244E+000  -1.34992421E-010    3097.85  <-- SCF
------------------------------------------------------------------------ <-- SCF
 
Final energy, E             =  -65561.57179403     eV
Final free energy (E-TS)    =  -65561.57179403     eV
(energies not corrected for finite basis set)
 
NB est. 0K energy (E-0.5TS)      =  -65561.57179403     eV
 
Calculating total energy with cut-off of  816.342eV.
------------------------------------------------------------------------ <-- SCF
SCF loop      Energy           Fermi           Energy gain       Timer   <-- SCF
                               energy          per atom          (sec)   <-- SCF
------------------------------------------------------------------------ <-- SCF
Initial  -6.55615718E+004  0.00000000E+000                      3133.49  <-- SCF
      1  -6.55615747E+004  7.24356668E+000   3.30460560E-005    3245.60  <-- SCF
      2  -6.55615747E+004  7.24356668E+000   2.05863443E-010    3334.45  <-- SCF
      3  -6.55615747E+004  7.24356683E+000   2.04340559E-008    3423.26  <-- SCF
      4  -6.55615747E+004  7.24356780E+000   6.57103734E-010    3512.03  <-- SCF
      5  -6.55615747E+004  7.24356782E+000  -8.66201370E-011    3599.87  <-- SCF
------------------------------------------------------------------------ <-- SCF
 
Final energy, E             =  -65561.57470395     eV
Final free energy (E-TS)    =  -65561.57470395     eV
(energies not corrected for finite basis set)
 
NB est. 0K energy (E-0.5TS)      =  -65561.57470395     eV
 
 For future reference: finite basis dEtot/dlog(Ecut) =      -0.437509eV
 Total energy corrected for finite basis set =  -65561.574696 eV
 
  =====================================================================
  +       Calculation of Nuclear Magnetic Resonance Parameters        +
  + ================================================================= +
 
  Starting Calculation of Electric Field Gradient Tensors         |<-- EFG
  +---------------- MEMORY AND SCRATCH DISK ESTIMATES PER PROCESS --------------+
  |                                                     Memory          Disk    |
  | Model and support data                             1317.5 MB         0.0 MB |
  | NMR EFG calculation requirements                    366.4 MB         0.0 MB |
  |                                               ----------------------------- |
  | Approx. total storage required per process         1683.8 MB         0.0 MB |
  |                                                                             |
  | Requirements will fluctuate during execution and may exceed these estimates |
  +-----------------------------------------------------------------------------+
  Total Time for EFG Tensors                     408.63 sec       |<-- EFG
 
  Starting Calculation of Chemical Shielding Tensors              |<-- NMR
  +---------------- MEMORY AND SCRATCH DISK ESTIMATES PER PROCESS --------------+
  |                                                     Memory          Disk    |
  | Model and support data                             1317.5 MB         0.0 MB |
  | NMR chemical shift calculation requirements         562.6 MB         0.0 MB |
  |                                               ----------------------------- |
  | Approx. total storage required per process         1880.1 MB         0.0 MB |
  |                                                                             |
  | Requirements will fluctuate during execution and may exceed these estimates |
  +-----------------------------------------------------------------------------+
  Starting k-point:   1 of   1                                    |<-- NMR
  Total Time for step 1 of 6:                   3287.51 sec       |<-- NMR
  Total Time for step 2 of 6:                   3269.79 sec       |<-- NMR
  Total Time for step 3 of 6:                   3286.03 sec       |<-- NMR
  Total Time for step 4 of 6:                   3287.67 sec       |<-- NMR
  Total Time for step 5 of 6:                   3251.63 sec       |<-- NMR
  Total Time for step 6 of 6:                   3274.99 sec       |<-- NMR
  Total Time for Chemical Shielding Tensors    29003.08 sec       |<-- NMR
 
  ========================================================================
  |           Chemical Shielding and Electric Field Gradient Tensors     |
  |----------------------------------------------------------------------|
  |     Nucleus                Shielding tensor             EFG Tensor   |
  |  Species       Ion    Iso(ppm)   Aniso(ppm)  Asym    Cq(MHz)    Eta  |
  |    O           1     -316.78     -13.47      0.52  -6.119E-02   0.52 |
  |    O           2     -317.08     -14.71      0.81   6.525E-02   0.80 |
  |    O           3     -318.03      10.37      0.44   6.629E-02   0.95 |
  |    O           4     -316.74     -13.71      0.68  -3.447E-02   0.56 |
  |    O           5     -318.61      -8.30      0.63   5.966E-02   0.11 |
  |    O           6     -317.14     -16.94      0.63  -9.345E-02   0.15 |
  |    O           7     -317.32     -14.71      0.55   5.579E-02   0.81 |
  |    O           8     -317.28      12.01      0.52  -5.579E-02   0.93 |
  |    O           9     -163.94     153.72      0.76   1.060E+00   0.86 |
  |    O          10     -164.57     156.50      0.80   1.040E+00   0.90 |
  |    O          11      -86.89      88.55      0.15  -3.167E+00   0.07 |
  |    O          12      -11.46      59.19      0.57   3.902E+00   0.84 |
  |    O          13      -12.52      59.52      0.57   3.887E+00   0.83 |
  |    O          14     -161.61     144.37      0.77   1.079E+00   0.70 |
  |    O          15      -88.85      86.41      0.18  -3.229E+00   0.13 |
  |    O          16     -160.28     153.07      0.81   1.113E+00   0.75 |
  |    O          17     -162.51     153.44      0.83   1.070E+00   0.80 |
  |    O          18      -11.45      57.68      0.18   3.979E+00   0.79 |
  |    O          19       -3.71      69.53      0.58   3.884E+00   0.85 |
  |    O          20     -163.15     143.45      0.79   1.038E+00   0.73 |
  |    O          21      -85.77      85.33      0.14  -3.152E+00   0.06 |
  |    O          22      -11.73      58.00      0.78   3.852E+00   0.87 |
  |    O          23     -163.64     157.89      0.80   1.086E+00   0.85 |
  |    O          24     -166.83     160.87      0.79   1.034E+00   0.99 |
  |    O          25      -85.03      87.93      0.14  -3.126E+00   0.07 |
  |    O          26      -87.32      76.57      0.19  -3.177E+00   0.12 |
  |    O          27      -82.57      80.54      0.15  -3.206E+00   0.11 |
  |    O          28      -90.15      82.75      0.16  -3.228E+00   0.11 |
  |    O          29      -92.73      87.58      0.07  -3.215E+00   0.08 |
  |    O          30      -84.91      79.55      0.10  -3.208E+00   0.12 |
  |    O          31      -89.85      88.26      0.18  -3.176E+00   0.13 |
  |    O          32     -161.27     146.45      0.82   1.081E+00   0.73 |
  |    O          33     -165.35     158.19      0.80   1.038E+00   0.90 |
  |    O          34      -12.70      57.95      0.55   3.903E+00   0.83 |
  |    O          35      -85.26      84.34      0.25  -3.119E+00   0.06 |
  |    O          36     -163.49     159.45      0.80   1.095E+00   0.83 |
  |    O          37      -14.49      57.96      0.19   3.954E+00   0.80 |
  |    O          38     -165.63     150.41      0.81   1.031E+00   0.84 |
  |    O          39      -83.93      88.13      0.18  -3.131E+00   0.06 |
  |    O          40     -161.61     151.26      0.78   1.093E+00   0.77 |
  |    O          41      -87.36      76.39      0.09  -3.176E+00   0.12 |
  |    O          42      -89.95      93.42      0.22  -3.180E+00   0.10 |
  |    O          43      -89.52      88.20      0.09  -3.181E+00   0.07 |
  |    O          44     -165.71     156.38      0.74   1.022E+00   0.98 |
  |    O          45      -86.07      95.18      0.29  -3.201E+00   0.10 |
  |    O          46     -162.27     144.77      0.77   1.057E+00   0.72 |
  |    O          47      -85.29      73.23      0.11  -3.210E+00   0.12 |
  |    O          48     -162.82     153.97      0.87   1.071E+00   0.80 |
  |    O          49      -90.49      90.05      0.17  -3.222E+00   0.12 |
  |    O          50      -87.73      84.76      0.10  -3.134E+00   0.09 |
  |    O          51     -161.82     147.12      0.82   1.073E+00   0.71 |
  |    O          52     -163.71     158.42      0.79   1.082E+00   0.84 |
  |    O          53      -84.28      81.10      0.17  -3.190E+00   0.12 |
  |    O          54     -161.29     146.03      0.84   1.081E+00   0.73 |
  |    O          55      -90.54      85.10      0.15  -3.237E+00   0.12 |
  |    O          56      -89.86      77.13      0.08  -3.209E+00   0.12 |
  |    Zr          1     1627.97    -127.13      0.20  -3.778E+01   0.14 |
  |    Zr          2     1613.68    -119.41      0.08  -3.687E+01   0.05 |
  |    Zr          3     1628.99    -123.61      0.07  -3.981E+01   0.06 |
  |    Zr          4     1609.67    -115.21      0.10  -3.778E+01   0.06 |
  |    Zr          5     1633.71    -129.34      0.14  -3.886E+01   0.12 |
  |    Zr          6     1629.15    -122.43      0.08  -3.956E+01   0.07 |
  |    Zr          7     1634.36    -126.65      0.08  -3.847E+01   0.06 |
  |    Zr          8     1628.48    -125.69      0.09  -3.763E+01   0.10 |
  |    Zr          9     1628.88    -123.02      0.09  -4.000E+01   0.07 |
  |    Zr         10     1633.74    -130.29      0.14  -3.866E+01   0.15 |
  |    Sn          1     3249.91     -48.62      0.59   1.268E+02   0.09 |
  |    Sn          2     3249.66     -48.90      0.60   1.272E+02   0.10 |
  |    Sn          3     3255.68     -58.10      0.44   1.257E+02   0.09 |
  |    Sn          4     3249.22     -49.40      0.70   1.269E+02   0.15 |
  |    Sn          5     3253.46     -62.24      0.78   1.236E+02   0.11 |
  |    Sn          6     3251.87     -47.66      0.23   1.297E+02   0.13 |
  |    La          1     4703.46     779.42      0.12  -8.330E+01   0.15 |
  |    La          2     4699.51     758.72      0.05  -8.048E+01   0.08 |
  |    La          3     4664.18     654.43      0.09  -8.140E+01   0.13 |
  |    La          4     4755.38     866.43      0.04  -8.647E+01   0.06 |
  |    La          5     4652.48     668.22      0.10  -7.857E+01   0.14 |
  |    La          6     4708.36     748.34      0.04  -8.360E+01   0.09 |
  |    La          7     4755.28     861.71      0.05  -8.596E+01   0.08 |
  |    La          8     4609.60     547.36      0.09  -7.714E+01   0.21 |
  |    La          9     4601.76     519.62      0.09  -7.461E+01   0.07 |
  |    La         10     4751.27     868.78      0.05  -8.497E+01   0.07 |
  |    La         11     4650.66     635.88      0.01  -7.761E+01   0.04 |
  |    La         12     4706.21     782.44      0.12  -8.308E+01   0.14 |
  |    La         13     4748.92     877.02      0.05  -8.364E+01   0.06 |
  |    La         14     4713.81     737.59      0.03  -8.408E+01   0.08 |
  |    La         15     4710.92     749.06      0.04  -8.330E+01   0.10 |
  |    La         16     4656.15     657.93      0.10  -8.018E+01   0.13 |
  ========================================================================
 
 *********************** Forces ***********************
 *                                                    *
 *            Cartesian components (eV/A)             *
 * -------------------------------------------------- *
 *                   x            y            z      *
 *                                                    *
 * O         1      0.00158     -0.00372     -0.00335 *
 * O         2     -0.00455     -0.00315      0.00195 *
 * O         3      0.00134      0.00551      0.00155 *
 * O         4     -0.00343      0.00346     -0.00292 *
 * O         5     -0.00403     -0.00384     -0.00255 *
 * O         6      0.00007      0.00168     -0.00234 *
 * O         7      0.00082     -0.00404     -0.00303 *
 * O         8      0.00147      0.00157     -0.00260 *
 * O         9      0.00663     -0.01059     -0.00666 *
 * O        10     -0.00774     -0.00490     -0.00255 *
 * O        11      0.00950     -0.00493      0.00642 *
 * O        12     -0.00591      0.00433      0.00083 *
 * O        13      0.00320     -0.00699     -0.00019 *
 * O        14      0.01011      0.00712     -0.00434 *
 * O        15     -0.00858     -0.00679      0.00499 *
 * O        16      0.00635      0.00155     -0.00053 *
 * O        17      0.00058     -0.00203     -0.00179 *
 * O        18      0.00239      0.00238      0.00319 *
 * O        19     -0.00265      0.00532      0.00653 *
 * O        20      0.00271      0.00391     -0.00621 *
 * O        21      0.00039     -0.01339     -0.00178 *
 * O        22     -0.00506      0.00739     -0.00094 *
 * O        23      0.00905     -0.00910      0.00478 *
 * O        24     -0.00450      0.01197      0.00590 *
 * O        25     -0.01601      0.00490     -0.00361 *
 * O        26      0.00413      0.00100     -0.00441 *
 * O        27      0.00641      0.00639      0.00233 *
 * O        28      0.00060      0.00411     -0.00563 *
 * O        29      0.00727      0.01072      0.00534 *
 * O        30     -0.00356      0.00093     -0.00528 *
 * O        31      0.00486      0.00025      0.00055 *
 * O        32     -0.00464     -0.00387      0.00036 *
 * O        33      0.00529     -0.00096      0.00736 *
 * O        34      0.00655     -0.00498     -0.00134 *
 * O        35     -0.00196     -0.01376     -0.00524 *
 * O        36     -0.00122     -0.00639      0.00755 *
 * O        37     -0.00246     -0.00603     -0.00496 *
 * O        38      0.00194      0.00121     -0.00540 *
 * O        39     -0.00672      0.01261      0.00234 *
 * O        40     -0.00561     -0.00029     -0.00081 *
 * O        41     -0.00497      0.00131      0.00129 *
 * O        42     -0.00236     -0.00369     -0.00175 *
 * O        43     -0.00106     -0.00517     -0.01422 *
 * O        44      0.00190     -0.00614     -0.00993 *
 * O        45      0.00061      0.01166      0.00539 *
 * O        46      0.00840      0.00482     -0.00437 *
 * O        47      0.00315     -0.00457      0.00123 *
 * O        48     -0.00282      0.00039     -0.00035 *
 * O        49      0.00561      0.00733     -0.00152 *
 * O        50     -0.00483      0.00975     -0.00137 *
 * O        51     -0.00341     -0.00366     -0.00048 *
 * O        52     -0.00706      0.00039      0.01055 *
 * O        53      0.00346      0.00103     -0.00628 *
 * O        54     -0.00344     -0.00261      0.00220 *
 * O        55     -0.00292     -0.01050     -0.00047 *
 * O        56     -0.00072     -0.00105      0.00501 *
 * Zr        1      0.00279     -0.00023      0.00150 *
 * Zr        2     -0.00521     -0.00132      0.01072 *
 * Zr        3      0.01399      0.00637      0.01357 *
 * Zr        4      0.01607      0.01688      0.00134 *
 * Zr        5      0.00428      0.00180     -0.00209 *
 * Zr        6     -0.00150     -0.00031      0.00492 *
 * Zr        7     -0.00890     -0.00286     -0.00509 *
 * Zr        8     -0.01041     -0.01156      0.00416 *
 * Zr        9      0.00435      0.00948      0.01296 *
 * Zr       10     -0.00289      0.00083     -0.00282 *
 * Sn        1     -0.00054      0.01331     -0.00330 *
 * Sn        2      0.00095     -0.01593      0.00226 *
 * Sn        3      0.00911      0.00037     -0.00340 *
 * Sn        4     -0.01157      0.00147     -0.00321 *
 * Sn        5      0.00101      0.00177      0.00158 *
 * Sn        6     -0.00055     -0.00890     -0.00243 *
 * La        1      0.00242      0.00645      0.00049 *
 * La        2      0.01078      0.00902      0.01775 *
 * La        3     -0.00829     -0.00033      0.00484 *
 * La        4     -0.01660     -0.00564     -0.00123 *
 * La        5      0.00267     -0.00563     -0.01567 *
 * La        6      0.01907      0.00432     -0.00412 *
 * La        7      0.01840      0.00712     -0.00121 *
 * La        8     -0.00343     -0.00427     -0.00586 *
 * La        9      0.00003     -0.00691     -0.00132 *
 * La       10     -0.00838     -0.01160      0.00298 *
 * La       11     -0.01356      0.00900      0.00247 *
 * La       12     -0.00542      0.00588     -0.00461 *
 * La       13      0.00091     -0.00872      0.00577 *
 * La       14     -0.01082     -0.01799      0.00230 *
 * La       15      0.00770      0.01777     -0.00211 *
 * La       16     -0.00065      0.00256      0.00041 *
 *                                                    *
 ******************************************************
 
 ***************** Stress Tensor *****************
 *                                               *
 *          Cartesian components (GPa)           *
 * --------------------------------------------- *
 *             x             y             z     *
 *                                               *
 *  x      0.009836     -0.006906     -0.004519  *
 *  y     -0.006906      0.021209      0.002652  *
 *  z     -0.004519      0.002652     -0.033391  *
 *                                               *
 *  Pressure:    0.0008                          *
 *                                               *
 *************************************************
 
 Pseudo atomic calculation performed for O 2s2 2p4
 
 Converged in 39 iterations to a total energy of -432.6554 eV
 
 
 Pseudo atomic calculation performed for Zr 4s2 4p6 4d2 5s2
 
 Converged in 38 iterations to a total energy of -1285.4931 eV
 
 
 Pseudo atomic calculation performed for Sn 4d10 5s2 5p2
 
 Converged in 48 iterations to a total energy of -2044.5414 eV
 
 
 Pseudo atomic calculation performed for La 5s2 5p6 5d1 6s2
 
 Converged in 34 iterations to a total energy of -968.0372 eV
 
Charge spilling parameter for spin component 1 = 0.23%
 
     Atomic Populations (Mulliken)
     -----------------------------
Species   Ion     s      p      d      f     Total  Charge (e)
==============================================================
  O        1     1.87   5.00   0.00   0.00   6.87    -0.87
  O        2     1.87   5.00   0.00   0.00   6.87    -0.87
  O        3     1.87   5.00   0.00   0.00   6.87    -0.87
  O        4     1.87   5.00   0.00   0.00   6.87    -0.87
  O        5     1.87   5.00   0.00   0.00   6.87    -0.87
  O        6     1.87   5.00   0.00   0.00   6.87    -0.87
  O        7     1.87   5.00   0.00   0.00   6.87    -0.87
  O        8     1.87   5.00   0.00   0.00   6.87    -0.87
  O        9     1.86   4.94   0.00   0.00   6.80    -0.80
  O       10     1.86   4.94   0.00   0.00   6.80    -0.80
  O       11     1.87   4.99   0.00   0.00   6.85    -0.85
  O       12     1.88   5.02   0.00   0.00   6.91    -0.91
  O       13     1.88   5.02   0.00   0.00   6.91    -0.91
  O       14     1.86   4.95   0.00   0.00   6.80    -0.80
  O       15     1.87   4.99   0.00   0.00   6.85    -0.85
  O       16     1.86   4.95   0.00   0.00   6.80    -0.80
  O       17     1.86   4.95   0.00   0.00   6.80    -0.80
  O       18     1.88   5.02   0.00   0.00   6.91    -0.91
  O       19     1.88   5.02   0.00   0.00   6.91    -0.91
  O       20     1.86   4.94   0.00   0.00   6.80    -0.80
  O       21     1.87   4.98   0.00   0.00   6.85    -0.85
  O       22     1.88   5.02   0.00   0.00   6.91    -0.91
  O       23     1.86   4.95   0.00   0.00   6.80    -0.80
  O       24     1.86   4.94   0.00   0.00   6.80    -0.80
  O       25     1.87   4.99   0.00   0.00   6.85    -0.85
  O       26     1.87   4.99   0.00   0.00   6.85    -0.85
  O       27     1.87   4.99   0.00   0.00   6.85    -0.85
  O       28     1.87   4.99   0.00   0.00   6.86    -0.86
  O       29     1.87   4.99   0.00   0.00   6.86    -0.86
  O       30     1.87   4.99   0.00   0.00   6.85    -0.85
  O       31     1.87   4.99   0.00   0.00   6.85    -0.85
  O       32     1.86   4.95   0.00   0.00   6.80    -0.80
  O       33     1.86   4.94   0.00   0.00   6.80    -0.80
  O       34     1.88   5.02   0.00   0.00   6.91    -0.91
  O       35     1.87   4.98   0.00   0.00   6.85    -0.85
  O       36     1.86   4.95   0.00   0.00   6.80    -0.80
  O       37     1.88   5.02   0.00   0.00   6.91    -0.91
  O       38     1.86   4.94   0.00   0.00   6.80    -0.80
  O       39     1.87   4.99   0.00   0.00   6.85    -0.85
  O       40     1.86   4.94   0.00   0.00   6.80    -0.80
  O       41     1.87   4.99   0.00   0.00   6.85    -0.85
  O       42     1.87   4.99   0.00   0.00   6.86    -0.86
  O       43     1.87   4.99   0.00   0.00   6.86    -0.86
  O       44     1.85   4.94   0.00   0.00   6.80    -0.80
  O       45     1.87   4.99   0.00   0.00   6.85    -0.85
  O       46     1.86   4.94   0.00   0.00   6.80    -0.80
  O       47     1.87   4.99   0.00   0.00   6.85    -0.85
  O       48     1.86   4.95   0.00   0.00   6.80    -0.80
  O       49     1.87   4.99   0.00   0.00   6.86    -0.86
  O       50     1.87   4.98   0.00   0.00   6.85    -0.85
  O       51     1.86   4.95   0.00   0.00   6.80    -0.80
  O       52     1.86   4.95   0.00   0.00   6.80    -0.80
  O       53     1.87   4.99   0.00   0.00   6.85    -0.85
  O       54     1.86   4.95   0.00   0.00   6.80    -0.80
  O       55     1.87   4.99   0.00   0.00   6.86    -0.86
  O       56     1.87   4.99   0.00   0.00   6.85    -0.85
  Zr       1     2.37   6.49   1.92   0.00  10.78     1.22
  Zr       2     2.37   6.50   1.92   0.00  10.79     1.21
  Zr       3     2.37   6.47   1.93   0.00  10.77     1.23
  Zr       4     2.37   6.49   1.92   0.00  10.78     1.22
  Zr       5     2.37   6.48   1.93   0.00  10.78     1.22
  Zr       6     2.37   6.47   1.93   0.00  10.76     1.24
  Zr       7     2.37   6.48   1.93   0.00  10.77     1.23
  Zr       8     2.37   6.49   1.92   0.00  10.78     1.22
  Zr       9     2.37   6.47   1.93   0.00  10.77     1.23
  Zr      10     2.37   6.48   1.93   0.00  10.77     1.23
  Sn       1     1.05   1.32  10.00   0.00  12.36     1.64
  Sn       2     1.05   1.32  10.00   0.00  12.37     1.63
  Sn       3     1.05   1.32  10.00   0.00  12.36     1.64
  Sn       4     1.05   1.32  10.00   0.00  12.36     1.64
  Sn       5     1.05   1.32  10.00   0.00  12.36     1.64
  Sn       6     1.05   1.32  10.00   0.00  12.37     1.63
  La       1     2.06   6.16   1.19   0.00   9.41     1.59
  La       2     2.08   6.16   1.19   0.00   9.43     1.57
  La       3     2.08   6.18   1.19   0.00   9.45     1.55
  La       4     2.02   6.15   1.19   0.00   9.37     1.63
  La       5     2.10   6.17   1.19   0.00   9.46     1.54
  La       6     2.06   6.17   1.19   0.00   9.42     1.58
  La       7     2.02   6.15   1.19   0.00   9.36     1.64
  La       8     2.11   6.19   1.19   0.00   9.49     1.51
  La       9     2.12   6.19   1.19   0.00   9.50     1.50
  La      10     2.02   6.14   1.19   0.00   9.36     1.64
  La      11     2.11   6.17   1.19   0.00   9.47     1.53
  La      12     2.04   6.16   1.19   0.00   9.40     1.60
  La      13     2.03   6.14   1.19   0.00   9.36     1.64
  La      14     2.06   6.17   1.19   0.00   9.42     1.58
  La      15     2.04   6.17   1.19   0.00   9.40     1.60
  La      16     2.09   6.18   1.19   0.00   9.45     1.55
==============================================================
 
            Bond              Population      Length (A)
============================================================
         O 49 -- Sn 1              0.35        2.09935
         O 27 -- Sn 6              0.35        2.10054
         O 45 -- Sn 6              0.35        2.10097
         O 28 -- Sn 3              0.35        2.10149
         O 55 -- Sn 2              0.35        2.10153
         O 42 -- Sn 4              0.35        2.10236
         O 15 -- Sn 6              0.35        2.10263
         O 30 -- Sn 4              0.34        2.10281
         O 53 -- Sn 2              0.34        2.10349
         O 18 -- Sn 4              0.34        2.10419
         O 18 -- Sn 2              0.34        2.10494
         O 29 -- Sn 5              0.35        2.10539
         O 47 -- Sn 1              0.34        2.10626
         O 43 -- Sn 5              0.35        2.10637
         O 37 -- Sn 1              0.34        2.10751
         O 31 -- Sn 6              0.34        2.10756
         O 11 -- Sn 3              0.35        2.10807
         O 56 -- Sn 3              0.34        2.10808
         O 37 -- Sn 3              0.33        2.10908
         O 26 -- Sn 2              0.34        2.10936
         O 41 -- Sn 1              0.34        2.10952
         O 39 -- Sn 1              0.35        2.10970
         O 25 -- Sn 4              0.35        2.11043
         O 34 -- Sn 5              0.33        2.11057
         O 12 -- Sn 5              0.33        2.11083
         O 35 -- Sn 6              0.34        2.11085
         O 36 -- Zr 3              0.42        2.11184
         O 21 -- Sn 2              0.35        2.11200
         O 23 -- Zr 5              0.42        2.11238
         O 34 -- Sn 1              0.33        2.11250
         O 24 -- Zr 9              0.43        2.11261
         O 13 -- Sn 5              0.33        2.11266
         O 13 -- Sn 4              0.34        2.11273
         O 50 -- Sn 4              0.34        2.11277
         O 12 -- Sn 2              0.33        2.11296
         O 19 -- Sn 3              0.33        2.11334
         O 36 -- Zr 10             0.42        2.11367
         O 16 -- Zr 10             0.42        2.11422
         O 48 -- Zr 8              0.42        2.11431
         O 52 -- Zr 1              0.43        2.11434
         O 10 -- Zr 5              0.42        2.11453
         O 19 -- Sn 6              0.33        2.11457
         O 49 -- Zr 4              0.44        2.11503
         O 22 -- Sn 3              0.34        2.11515
         O 52 -- Zr 9              0.42        2.11549
         O 22 -- Sn 5              0.33        2.11572
         O 40 -- Zr 6              0.43        2.11595
         O 45 -- Zr 1              0.45        2.11614
         O 23 -- Zr 6              0.42        2.11631
         O 17 -- Zr 7              0.42        2.11648
         O 9  -- Zr 9              0.43        2.11653
         O 33 -- Zr 8              0.43        2.11661
         O 24 -- Zr 7              0.43        2.11662
         O 33 -- Zr 3              0.42        2.11664
         O 16 -- Zr 5              0.42        2.11701
         O 29 -- Zr 4              0.44        2.11715
         O 44 -- Zr 9              0.44        2.11725
         O 42 -- Zr 2              0.44        2.11742
         O 48 -- Zr 1              0.41        2.11776
         O 44 -- Zr 3              0.44        2.11834
         O 28 -- Zr 4              0.44        2.11856
         O 9  -- Zr 6              0.44        2.11873
         O 38 -- Zr 2              0.43        2.11875
         O 32 -- Zr 10             0.42        2.11877
         O 17 -- Zr 10             0.42        2.11896
         O 55 -- Zr 2              0.45        2.11901
         O 54 -- Zr 1              0.42        2.11909
         O 15 -- Zr 8              0.45        2.11913
         O 31 -- Zr 5              0.46        2.11933
         O 40 -- Zr 3              0.43        2.11942
         O 51 -- Zr 2              0.43        2.11971
         O 10 -- Zr 7              0.43        2.11973
         O 54 -- Zr 7              0.42        2.12006
         O 14 -- Zr 4              0.44        2.12061
         O 27 -- Zr 6              0.45        2.12068
         O 53 -- Zr 3              0.45        2.12117
         O 20 -- Zr 6              0.43        2.12147
         O 46 -- Zr 4              0.44        2.12158
         O 32 -- Zr 8              0.42        2.12159
         O 38 -- Zr 6              0.42        2.12200
         O 43 -- Zr 2              0.44        2.12253
         O 39 -- Zr 7              0.45        2.12288
         O 11 -- Zr 8              0.45        2.12300
         O 30 -- Zr 9              0.45        2.12311
         O 25 -- Zr 7              0.45        2.12327
         O 51 -- Zr 5              0.42        2.12374
         O 46 -- Zr 3              0.43        2.12394
         O 14 -- Zr 9              0.43        2.12491
         O 35 -- Zr 2              0.46        2.12500
         O 50 -- Zr 1              0.46        2.12539
         O 26 -- Zr 10             0.46        2.12547
         O 56 -- Zr 1              0.45        2.12560
         O 41 -- Zr 10             0.46        2.12566
         O 20 -- Zr 4              0.43        2.12621
         O 21 -- Zr 8              0.46        2.12665
         O 47 -- Zr 5              0.45        2.12874
         O 4  -- La 4              0.18        2.35797
         O 1  -- La 10             0.18        2.35887
         O 7  -- La 7              0.18        2.35933
         O 6  -- La 12             0.17        2.35952
         O 2  -- La 13             0.17        2.35978
         O 6  -- La 1              0.17        2.35981
         O 4  -- La 6              0.18        2.35987
         O 8  -- La 13             0.17        2.35993
         O 1  -- La 1              0.18        2.36006
         O 8  -- La 10             0.19        2.36016
         O 2  -- La 7              0.20        2.36023
         O 8  -- La 4              0.20        2.36039
         O 1  -- La 15             0.19        2.36065
         O 2  -- La 12             0.19        2.36071
         O 5  -- La 15             0.18        2.36088
         O 5  -- La 6              0.18        2.36117
         O 2  -- La 2              0.18        2.36136
         O 4  -- La 16             0.17        2.36145
         O 7  -- La 16             0.17        2.36147
         O 6  -- La 14             0.19        2.36149
         O 7  -- La 3              0.18        2.36171
         O 3  -- La 3              0.17        2.36173
         O 3  -- La 14             0.18        2.36174
         O 5  -- La 2              0.16        2.36187
         O 8  -- La 5              0.18        2.36228
         O 3  -- La 5              0.15        2.36239
         O 1  -- La 11             0.17        2.36296
         O 7  -- La 11             0.16        2.36303
         O 3  -- La 8              0.16        2.36324
         O 5  -- La 8              0.17        2.36330
         O 6  -- La 9              0.16        2.36442
         O 4  -- La 9              0.16        2.36445
         O 16 -- La 5              0.12        2.65679
         O 40 -- La 9              0.13        2.66030
         O 23 -- La 11             0.12        2.66170
         O 52 -- La 2              0.12        2.66250
         O 36 -- La 2              0.12        2.66430
         O 10 -- La 13             0.11        2.66437
         O 51 -- La 1              0.13        2.66494
         O 9  -- La 11             0.13        2.66499
         O 48 -- La 6              0.13        2.66553
         O 54 -- La 3              0.14        2.66601
         O 33 -- La 13             0.11        2.66647
         O 14 -- La 16             0.14        2.66668
         O 32 -- La 12             0.12        2.66719
         O 22 -- La 9              0.24        2.66758
         O 12 -- La 9              0.23        2.66841
         O 24 -- La 13             0.11        2.66878
         O 38 -- La 10             0.12        2.66897
         O 20 -- La 12             0.13        2.66905
         O 17 -- La 15             0.13        2.66906
         O 44 -- La 2              0.12        2.67069
         O 28 -- La 16             0.18        2.67072
         O 48 -- La 4              0.13        2.67087
         O 19 -- La 9              0.24        2.67090
         O 17 -- La 10             0.12        2.67101
         O 13 -- La 11             0.23        2.67125
         O 44 -- La 13             0.12        2.67147
         O 42 -- La 16             0.17        2.67150
         O 24 -- La 10             0.13        2.67186
         O 38 -- La 4              0.13        2.67195
         O 46 -- La 1              0.13        2.67208
         O 11 -- La 8              0.18        2.67226
         O 56 -- La 2              0.17        2.67326
         O 34 -- La 11             0.23        2.67356
         O 55 -- La 1              0.17        2.67365
         O 46 -- La 15             0.13        2.67438
         O 33 -- La 4              0.13        2.67440
         O 51 -- La 14             0.14        2.67449
         O 10 -- La 7              0.13        2.67493
         O 21 -- La 8              0.19        2.67494
         O 47 -- La 11             0.18        2.67509
         O 52 -- La 6              0.14        2.67518
         O 27 -- La 9              0.18        2.67542
         O 37 -- La 8              0.24        2.67558
         O 26 -- La 5              0.18        2.67574
         O 45 -- La 5              0.17        2.67582
         O 55 -- La 10             0.17        2.67593
         O 49 -- La 1              0.17        2.67604
         O 49 -- La 12             0.17        2.67617
         O 50 -- La 5              0.18        2.67625
         O 54 -- La 7              0.12        2.67630
         O 43 -- La 3              0.18        2.67631
         O 36 -- La 15             0.14        2.67645
         O 25 -- La 8              0.18        2.67682
         O 32 -- La 14             0.14        2.67685
         O 53 -- La 9              0.18        2.67692
         O 39 -- La 8              0.18        2.67772
         O 20 -- La 7              0.13        2.67790
         O 15 -- La 13             0.16        2.67834
         O 14 -- La 6              0.14        2.67839
         O 18 -- La 5              0.23        2.67842
         O 18 -- La 8              0.24        2.67858
         O 29 -- La 6              0.18        2.67860
         O 31 -- La 5              0.18        2.67860
         O 37 -- La 2              0.23        2.67864
         O 41 -- La 2              0.18        2.67875
         O 35 -- La 16             0.19        2.67905
         O 23 -- La 7              0.13        2.67913
         O 15 -- La 12             0.18        2.67921
         O 29 -- La 15             0.17        2.67938
         O 30 -- La 11             0.18        2.67964
         O 9  -- La 10             0.12        2.68069
         O 34 -- La 3              0.25        2.68087
         O 19 -- La 16             0.24        2.68133
         O 43 -- La 14             0.19        2.68143
         O 13 -- La 15             0.24        2.68218
         O 42 -- La 4              0.17        2.68273
         O 28 -- La 7              0.17        2.68356
         O 16 -- La 14             0.14        2.68439
         O 35 -- La 3              0.19        2.68445
         O 22 -- La 14             0.25        2.68467
         O 41 -- La 12             0.18        2.68518
         O 31 -- La 13             0.17        2.68535
         O 12 -- La 6              0.24        2.68556
         O 45 -- La 3              0.19        2.68648
         O 56 -- La 7              0.18        2.68664
         O 21 -- La 6              0.19        2.68734
         O 39 -- La 3              0.19        2.68800
         O 25 -- La 15             0.19        2.68875
         O 47 -- La 1              0.18        2.68881
         O 26 -- La 10             0.18        2.68891
         O 40 -- La 4              0.13        2.68979
         O 11 -- La 14             0.20        2.69018
         O 50 -- La 4              0.19        2.69126
         O 30 -- La 16             0.18        2.69133
         O 27 -- La 12             0.17        2.69263
         O 53 -- La 1              0.18        2.69394
         O 12 -- O 22             -0.06        2.79407
         O 13 -- O 34             -0.06        2.79464
         O 18 -- O 50             -0.06        2.79580
         O 37 -- O 56             -0.06        2.79590
         O 31 -- O 45             -0.06        2.79678
         O 11 -- O 37             -0.06        2.79733
         O 19 -- O 22             -0.05        2.79764
         O 18 -- O 26             -0.06        2.79822
         O 13 -- O 30             -0.06        2.79842
         O 34 -- O 43             -0.06        2.79857
         O 34 -- O 47             -0.06        2.79866
         O 19 -- O 28             -0.06        2.79867
         O 15 -- O 31             -0.06        2.79883
         O 13 -- O 29             -0.06        2.79885
         O 12 -- O 53             -0.06        2.79891
         O 18 -- O 21             -0.06        2.79940
         O 41 -- O 49             -0.06        2.79973
         O 30 -- O 42             -0.06        2.79985
         O 12 -- O 29             -0.06        2.80001
         O 26 -- O 55             -0.06        2.80020
         O 37 -- O 41             -0.06        2.80023
         O 18 -- O 25             -0.06        2.80026
         O 47 -- O 49             -0.06        2.80033
         O 53 -- O 55             -0.06        2.80068
         O 19 -- O 27             -0.06        2.80096
         O 28 -- O 56             -0.06        2.80125
         O 37 -- O 39             -0.06        2.80143
         O 15 -- O 27             -0.06        2.80209
         O 10 -- O 24             -0.04        2.80526
         O 35 -- O 45             -0.06        2.80805
         O 42 -- O 50             -0.06        2.80839
         O 19 -- O 35             -0.05        2.80873
         O 22 -- O 43             -0.05        2.80960
         O 33 -- O 44             -0.04        2.81026
         O 9  -- O 23             -0.04        2.81032
         O 44 -- O 52             -0.04        2.81051
         O 36 -- O 44             -0.03        2.81094
         O 17 -- O 24             -0.03        2.81135
         O 24 -- O 44             -0.03        2.81197
         O 34 -- O 39             -0.05        2.81229
         O 12 -- O 21             -0.05        2.81236
         O 15 -- O 33             -0.03        2.81266
         O 13 -- O 25             -0.05        2.81275
         O 11 -- O 22             -0.05        2.81317
         O 52 -- O 56             -0.03        2.81397
         O 33 -- O 48             -0.03        2.81435
         O 51 -- O 55             -0.03        2.81465
         O 16 -- O 26             -0.03        2.81467
         O 38 -- O 55             -0.03        2.81484
         O 48 -- O 52             -0.03        2.81523
         O 15 -- O 32             -0.03        2.81549
         O 20 -- O 49             -0.03        2.81561
         O 17 -- O 36             -0.03        2.81621
         O 9  -- O 24             -0.03        2.81635
         O 36 -- O 41             -0.03        2.81673
         O 14 -- O 28             -0.03        2.81702
         O 16 -- O 31             -0.03        2.81727
         O 23 -- O 47             -0.03        2.81764
         O 46 -- O 49             -0.03        2.81805
         O 10 -- O 23             -0.03        2.81826
         O 40 -- O 53             -0.03        2.81890
         O 27 -- O 40             -0.03        2.81901
         O 10 -- O 31             -0.03        2.82003
         O 9  -- O 38             -0.03        2.82012
         O 38 -- O 42             -0.03        2.82035
         O 9  -- O 30             -0.03        2.82056
         O 10 -- O 54             -0.03        2.82081
         O 36 -- O 46             -0.03        2.82238
         O 45 -- O 50             -0.03        2.82302
         O 45 -- O 54             -0.03        2.82320
         O 14 -- O 52             -0.03        2.82331
         O 35 -- O 42             -0.03        2.82429
         O 20 -- O 23             -0.03        2.82435
         O 33 -- O 40             -0.03        2.82542
         O 38 -- O 40             -0.03        2.82572
         O 16 -- O 51             -0.03        2.82644
         O 32 -- O 41             -0.03        2.82778
         O 47 -- O 51             -0.03        2.82800
         O 16 -- O 32             -0.03        2.82819
         O 20 -- O 28             -0.03        2.82881
         O 29 -- O 46             -0.03        2.82913
         O 17 -- O 26             -0.03        2.82947
         O 20 -- O 27             -0.03        2.82990
         O 54 -- O 56             -0.03        2.83031
         O 14 -- O 30             -0.03        2.83063
         O 21 -- O 48             -0.03        2.83088
         O 14 -- O 29             -0.03        2.83092
         O 48 -- O 50             -0.03        2.83109
         O 39 -- O 54             -0.03        2.83116
         O 46 -- O 53             -0.03        2.83161
         O 17 -- O 25             -0.03        2.83161
         O 43 -- O 51             -0.03        2.83167
         O 11 -- O 21             -0.03        2.83371
         O 11 -- O 32             -0.03        2.83499
         O 25 -- O 39             -0.03        2.83607
         O 35 -- O 43             -0.03        2.83714
============================================================
 

Writing analysis data to 052.castep_bin

Writing model to 052.check
 
 A BibTeX formatted list of references used in this run has been written to 
 052.bib
 
Initialisation time =     54.52 s
Calculation time    =  33431.46 s
Finalisation time   =     34.84 s
Total time          =  33520.83 s
Peak Memory Use     = 2840064 kB
  
Overall parallel efficiency rating: Good (78%)                                  
  
Data was distributed by:-
G-vector (4-way); efficiency rating: Good (79%)                                 
k-point (14-way); efficiency rating: Excellent (99%)                            
