 +-------------------------------------------------+
 |                                                 |
 |      CCC   AA    SSS  TTTTT  EEEEE  PPPP        |
 |     C     A  A  S       T    E      P   P       |
 |     C     AAAA   SS     T    EEE    PPPP        |
 |     C     A  A     S    T    E      P           |
 |      CCC  A  A  SSS     T    EEEEE  P           |
 |                                                 |
 +-------------------------------------------------+
 |                                                 |
 | Welcome to Academic Release CASTEP version 16.11|          
 | Ab Initio Total Energy Program                  |
 |                                                 |
 | Authors:                                        |
 | M. Segall, M. Probert, C. Pickard, P. Hasnip,   |
 | S. Clark, K. Refson, J. R. Yates, M. Payne      |
 |                                                 |
 | Contributors:                                   |
 | P. Lindan, P. Haynes, J. White, V. Milman,      |
 | N. Govind, M. Gibson, P. Tulip, V. Cocula,      |
 | B. Montanari, D. Quigley, M. Glover,            |
 | L. Bernasconi, A. Perlov, M. Plummer,           |
 | E. McNellis, J. Meyer, J. Gale, D. Jochym       |
 | J. Aarons, B. Walker, R. Gillen, D. Jones       |
 | T. Green, I. J. Bush, C. J. Armstrong,          |
 | E. J. Higgins, E. L. Brown, M. S. McFly         |
 |                                                 |
 | Copyright (c) 2000 - 2015                       |
 |                                                 |
 |     Distributed under the terms of an           |
 |     Agreement between the United Kingdom        |
 |     Car-Parrinello (UKCP) Consortium,           |
 |     Daresbury Laboratory and Accelrys, Inc.     |
 |                                                 |
 | Please cite                                     |
 |                                                 |
 |     "First principles methods using CASTEP"     |
 |                                                 |
 |         Zeitschrift fuer Kristallographie       |
 |           220(5-6) pp. 567-570 (2005)           |
 |                                                 |
 | S. J. Clark, M. D. Segall, C. J. Pickard,       |
 | P. J. Hasnip, M. J. Probert, K. Refson,         |
 | M. C. Payne                                     |
 |                                                 |
 |       in all publications arising from          |
 |              your use of CASTEP                 |
 |                                                 |
 +-------------------------------------------------+
 
 
 Compiled for linux_x86_64_ifort16 on Sat, 23 Jul 2016 23:44:54 +0100
 from code version 
 203e84763863+ Castep161_branch Fri, 04 Mar 2016 19:21:07 +0000
 Compiler: Intel Fortran 16.0.3.210; Optimisation: fast
 MATHLIBS: Intel MKL(11.3.3) (LAPACK version 3.6.0)
 FFT Lib : mkl
 Fundamental constants values: CODATA 2010
 
 Run started: Sun, 18 Mar 2018 04:52:29 +0000
 +-------------------------------------------------+
 |                                                 |
 |           N   N    M   M    RRRR                |
 |           NN  N    MM MM    R   R               |
 |           N N N    M M M    RRRR                |
 |           N  NN    M   M    R  R                |
 |           N   N    M   M    R   R               |
 |                                                 |
 +-------------------------------------------------+
 |                                                 |
 | Welcome to Materials Studio CASTEP-NMR          |
 |                                                 |
 | Authors:                                        |
 | J.R. Yates, C.J. Pickard, F. Mauri              |
 |                                                 |
 | Contributors:                                   |
 | T.F.G. Green, S.A. Joyce                        |
 |                                                 |
 | Copyright (c) 2004 - 2015                       |
 |                                                 |
 | Please cite the appropriate publications in all |
 | work arising from your use of CASTEP NMR.       |
 |                                                 |
 | For NMR Shielding Tensors cite:                 |
 |    "All-electron magnetic response with         |
 |    pseudopotentials: NMR chemical shifts",      |
 |    C. J. Pickard, F. Mauri;                     |
 |    Physical Review B63 245101 (2001), and       |
 |                                                 |
 |    "Calculation of NMR Chemical Shifts          |
 |    for extended systems using                   |
 |    Ultrasoft Pseudopotentials",                 |
 |    J. R. Yates, C. J. Pickard and F. Mauri      |
 |    Physical Review B76 024401 (2007)            |
 |                                                 |
 | For Electric Field Gradients cite:              |
 |   "Accurate First Principles Prediction of 17O  |
 |    NMR Parameters in SiO2: Assignment of the    |
 |    Zeolite Ferrierite Spectrum"                 |
 |    M. Profeta, F. Mauri and C. J. Pickard       |
 |    J. Amer. Chem. Soc. 125 541 (2003)           |
 |                                                 |
 | For Spin-Spin (J) Couplings cite:               |
 |   "A first principles theory of NMR J-coupling  |
 |   in solid-state systems"                       |
 |   S.A. Joyce, J.R. Yates, C.J. Pickard, F. Mauri|
 |   J. Chem. Phys. 127 204107 (2007)              |
 |                                                 |
 |   "Relativistic NMR J-coupling with ultrasoft   |
 |   pseudopotentials and the zeroth-order regular |
 |   approximation"                                |
 |   T.F.G. Green and J.R. Yates                   |
 |   J. Chem. Phys. 140 234106 (2014)              |
 |                                                 |
 +-------------------------------------------------+
 
 
 Atomic calculation performed for O: 1s2 2s2 2p4
 
 Converged in 44 iterations to an ae energy of -2040.855 eV
 
 
 Atomic calculation performed for O: 1s2 2s2 2p4
 
 Exceeded max iterations: converged to 0.000000062 eV
 
   ============================================================                
   | Pseudopotential Report - Date of generation 18-03-2018   |                
   ------------------------------------------------------------                
   | Element: O Ionic charge:  6.00 Level of theory: PBE      |                
   | Atomic Solver: ZORA (scalar)                             |                
   |                                                          |                
   |               Reference Electronic Structure             |                
   |         Orbital         Occupation         Energy        |                
   |            2s              2.000           -0.881        |                
   |            2p              4.000           -0.332        |                
   |                                                          |                
   |                 Pseudopotential Definition               |                
   |        Beta     l      e      Rc     scheme   norm       |                
   |          1      0   -0.881   1.100     qc      0         |                
   |          2      0    0.250   1.100     qc      0         |                
   |          3      1   -0.332   1.100     qc      0         |                
   |          4      1    0.250   1.100     qc      0         |                
   |         loc     2    0.000   1.100     pn      0         |                
   |                                                          |                
   | Augmentation charge Rinner = 0.769                       |                
   | Partial core correction Rc = 0.769                       |                
   ------------------------------------------------------------                
   | "2|1.1|15|18|20|20:21(qc=7)"                             |                
   ------------------------------------------------------------                
   |      Author: Chris J. Pickard, Cambridge University      |                
   ============================================================                
 
 Atomic calculation performed for Zr: 1s2 2s2 2p6 3s2 3p6 3d10 4s2 4p6 4d2 5s2
 
 Converged in 53 iterations to an ae energy of -97719.888 eV
 
 
 Atomic calculation performed for Zr: 1s2 2s2 2p6 3s2 3p6 3d10 4s2 4p6 4d2 5s2
 
 Exceeded max iterations: converged to 0.000000970 eV
 
 Warning: ion_atom_descreen_psp: negative charge density encountered
   ============================================================                
   | Pseudopotential Report - Date of generation 18-03-2018   |                
   ------------------------------------------------------------                
   | Element: Zr Ionic charge: 12.00 Level of theory: PBE     |                
   | Atomic Solver: ZORA (scalar)                             |                
   |                                                          |                
   |               Reference Electronic Structure             |                
   |         Orbital         Occupation         Energy        |                
   |            4s              2.000           -2.003        |                
   |            4p              6.000           -1.193        |                
   |            5s              2.000           -0.163        |                
   |            4d              2.000           -0.132        |                
   |                                                          |                
   |                 Pseudopotential Definition               |                
   |        Beta     l      e      Rc     scheme   norm       |                
   |          1      0   -2.003   2.105     qc      0         |                
   |          2      0   -0.163   2.105     qc      0         |                
   |          3      0    0.250   2.105     qc      0         |                
   |          4      1   -1.193   2.105     qc      0         |                
   |          5      1    0.250   2.105     qc      0         |                
   |          6      2   -0.132   2.105     qc      0         |                
   |          7      2    0.250   2.105     qc      0         |                
   |         loc     3    0.000   2.105     pn      0         |                
   |                                                          |                
   | Augmentation charge Rinner = 1.471                       |                
   | Partial core correction Rc = 1.471                       |                
   ------------------------------------------------------------                
   | "3|2.1|7|8|9|40U:50:41:42"                               |                
   ------------------------------------------------------------                
   |      Author: Chris J. Pickard, Cambridge University      |                
   ============================================================                
 
 Atomic calculation performed for Sn:
 1s2 2s2 2p6 3s2 3p6 3d10 4s2 4p6 4d10 5s2 5p2
 
 Converged in 58 iterations to an ae energy of -167539.320 eV
 
 
 Atomic calculation performed for Sn:
 1s2 2s2 2p6 3s2 3p6 3d10 4s2 4p6 4d10 5s2 5p2
 
 Exceeded max iterations: converged to 0.000001154 eV
 
   ============================================================                
   | Pseudopotential Report - Date of generation 18-03-2018   |                
   ------------------------------------------------------------                
   | Element: Sn Ionic charge: 14.00 Level of theory: PBE     |                
   | Atomic Solver: ZORA (scalar)                             |                
   |                                                          |                
   |               Reference Electronic Structure             |                
   |         Orbital         Occupation         Energy        |                
   |            4d             10.000           -0.950        |                
   |            5s              2.000           -0.388        |                
   |            5p              2.000           -0.136        |                
   |                                                          |                
   |                 Pseudopotential Definition               |                
   |        Beta     l      e      Rc     scheme   norm       |                
   |          1      0   -0.388   2.199     qc      0         |                
   |          2      0    0.250   2.199     qc      0         |                
   |          3      1   -0.136   2.199     qc      0         |                
   |          4      1    0.250   2.199     qc      0         |                
   |          5      2   -0.950   2.199     qc      0         |                
   |          6      2    0.250   2.199     qc      0         |                
   |         loc     3    0.000   2.199     pn      0         |                
   |                                                          |                
   | Augmentation charge Rinner = 1.537                       |                
   | Partial core correction Rc = 1.537                       |                
   ------------------------------------------------------------                
   | "3|2.2|7|8|9|50:51:42"                                   |                
   ------------------------------------------------------------                
   |      Author: Chris J. Pickard, Cambridge University      |                
   ============================================================                
 
 Atomic calculation performed for La:
 1s2 2s2 2p6 3s2 3p6 3d10 4s2 4p6 4d10 5s2 5p6 5d1 6s2
 
 Converged in 56 iterations to an ae energy of -230121.495 eV
 
 
 Atomic calculation performed for La:
 1s2 2s2 2p6 3s2 3p6 3d10 4s2 4p6 4d10 5s2 5p6 5d1 6s2
 
 Exceeded max iterations: converged to 0.000000907 eV
 
 Warning: ion_atom_descreen_psp: negative charge density encountered
   ============================================================                
   | Pseudopotential Report - Date of generation 18-03-2018   |                
   ------------------------------------------------------------                
   | Element: La Ionic charge: 11.00 Level of theory: PBE     |                
   | Atomic Solver: ZORA (scalar)                             |                
   |                                                          |                
   |               Reference Electronic Structure             |                
   |         Orbital         Occupation         Energy        |                
   |            5s              2.000           -1.430        |                
   |            5p              6.000           -0.823        |                
   |            6s              2.000           -0.135        |                
   |            5d              1.000           -0.114        |                
   |                                                          |                
   |                 Pseudopotential Definition               |                
   |        Beta     l      e      Rc     scheme   norm       |                
   |          1      0   -1.430   2.298     qc      0         |                
   |          2      0   -0.135   2.298     qc      0         |                
   |          3      0    0.250   2.298     qc      0         |                
   |          4      1   -0.823   2.298     qc      0         |                
   |          5      1    0.250   2.298     qc      0         |                
   |          6      2   -0.114   2.298     qc      0         |                
   |          7      2    0.250   2.298     qc      0         |                
   |         loc     2    0.000   2.298     pn      0         |                
   |                                                          |                
   | Augmentation charge Rinner = 1.606                       |                
   | Partial core correction Rc = 1.606                       |                
   ------------------------------------------------------------                
   | "2|2.3|5|6|7|50U:60:51:52(qc=4.5)"                       |                
   ------------------------------------------------------------                
   |      Author: Chris J. Pickard, Cambridge University      |                
   ============================================================                
 
 Pseudo atomic calculation performed for O 2s2 2p4
 
 Converged in 39 iterations to a total energy of -432.6554 eV
 
 
 Pseudo atomic calculation performed for Zr 4s2 4p6 4d2 5s2
 
 Converged in 38 iterations to a total energy of -1285.4931 eV
 
 
 Pseudo atomic calculation performed for Sn 4d10 5s2 5p2
 
 Converged in 48 iterations to a total energy of -2044.5414 eV
 
 
 Pseudo atomic calculation performed for La 5s2 5p6 5d1 6s2
 
 Converged in 34 iterations to a total energy of -968.0372 eV
 
 Calculation parallelised over 56 processes.
 Data is distributed by G-vector(4-way) and k-point(14-way)

 ************************************ Title ************************************
 nmr testing

 ***************************** General Parameters ******************************
  
 output verbosity                               : normal  (1)
 write checkpoint data to                       : 059.check
 type of calculation                            : Magnetic Resonance
 stress calculation                             : on
 density difference calculation                 : off
 electron localisation func (ELF) calculation   : off
 Hirshfeld analysis                             : off
 unlimited duration calculation
 timing information                             : on
 memory usage estimate                          : on
 write final potential to formatted file        : off
 write final density to formatted file          : off
 write structure in CIF formatted file          : on
 write structure in CELL formatted file         : on
 write BibTeX reference list                    : on
 write OTFG pseudopotential files               : on
 checkpoint writing                             : both castep_bin and check files
  
 output         length unit                     : A
 output           mass unit                     : amu
 output           time unit                     : ps
 output         charge unit                     : e
 output           spin unit                     : hbar/2
 output         energy unit                     : eV
 output          force unit                     : eV/A
 output       velocity unit                     : A/ps
 output       pressure unit                     : GPa
 output     inv_length unit                     : 1/A
 output      frequency unit                     : cm-1
 output force constant unit                     : eV/A**2
 output         volume unit                     : A**3
 output   IR intensity unit                     : (D/A)**2/amu
 output         dipole unit                     : D
 output         efield unit                     : eV/A/e
 output        entropy unit                     : J/mol/K
  
 wavefunctions paging                           : none
 random number generator seed                   : randomised (45230892)
 data distribution                              : optimal for this architecture
 optimization strategy                          : maximize speed(+++)

 *********************** Exchange-Correlation Parameters ***********************
  
 using functional                               : Perdew Burke Ernzerhof
 relativistic treatment                         : ZORA
 DFT+D: Semi-empirical dispersion correction    : off

 ************************* Pseudopotential Parameters **************************
  
 pseudopotential representation                 : reciprocal space
 <beta|phi> representation                      : reciprocal space
 spin-orbit coupling                            : off

 **************************** Basis Set Parameters *****************************
  
 plane wave basis set cut-off                   :   816.3416   eV
 size of standard grid                          :     1.7500
 size of   fine   gmax                          :    25.6161   1/A
 finite basis set correction                    : automatic
 number of sample energies                      :          3
           sample  spacing                      :     5.0000   eV

 **************************** Electronic Parameters ****************************
  
 number of  electrons                           :  716.0    
 net charge of system                           :  0.000    
 treating system as non-spin-polarized
 number of bands                                :        430

 ********************* Electronic Minimization Parameters **********************
  
 Method: Treating system as metallic with density mixing treatment of electrons,
         and number of  SD  steps               :          1
         and number of  CG  steps               :          4
  
 total energy / atom convergence tol.           : 0.1000E-08   eV
 eigen-energy convergence tolerance             : 0.2458E-09   eV
 max force / atom convergence tol.              : ignored
 convergence tolerance window                   :          3   cycles
 max. number of SCF cycles                      :         50
 number of fixed-spin iterations                :         10
 smearing scheme                                : Gaussian
 smearing width                                 : 0.2000       eV
 Fermi energy convergence tolerance             : 0.2721E-13   eV
 periodic dipole correction                     : NONE

 ************************** Density Mixing Parameters **************************
  
 density-mixing scheme                          : Broyden
 max. length of mixing history                  :         20
 charge density mixing amplitude                : 0.8000    
 cut-off energy for mixing                      :  816.3       eV

 *********************** Population Analysis Parameters ************************
  
 Population analysis with cutoff                :  3.000       A

 ************************ Magnetic Resonance Parameters ************************
  
 Magnetic Resonance Property                    : Chemical Shielding + EFG
 Position Operator Method                       : crystal
 max. number of MagRes CG steps                 :        250
 convergence tolerance window                   :          2   cycles
 energy convergence tolerance                   : 0.1000E-11   eV
 band convergence tolerance                     : 0.1000E-08   eV

 *******************************************************************************
  
 
                           -------------------------------
                                      Unit Cell
                           -------------------------------
        Real Lattice(A)                      Reciprocal Lattice(1/A)
  10.9062329   0.0063965  -0.0054809        0.5761099  -0.0003377   0.0002893
   0.0063965  10.9062328  -0.0054809       -0.0003377   0.5761099   0.0002893
  -0.0054808  -0.0054808  10.9064718        0.0002893   0.0002893   0.5760973
 
                       Lattice parameters(A)       Cell Angles
                    a =   10.906236          alpha =   90.057603
                    b =   10.906236          beta  =   90.057603
                    c =   10.906475          gamma =   89.932778
 
                       Current cell volume = 1297.279167       A**3
 
                           -------------------------------
                                     Cell Contents
                           -------------------------------
                         Total number of ions in cell =   88
                      Total number of species in cell =    4
                        Max number of any one species =   56
 
            xxxxxxxxxxxxxxxxxxxxxxxxxxxxxxxxxxxxxxxxxxxxxxxxxxxxxxxxxxxx
            x  Element    Atom        Fractional coordinates of atoms  x
            x            Number           u          v          w      x
            x----------------------------------------------------------x
            x  O            1         0.125160   0.124812   0.124949   x 
            x  O            2         0.625054   0.125054   0.624806   x 
            x  O            3         0.125104   0.625104   0.625096   x 
            x  O            4         0.624812   0.625160   0.124949   x 
            x  O            5         0.874896   0.374896   0.374904   x 
            x  O            6         0.874840   0.875188   0.875051   x 
            x  O            7         0.375188   0.374840   0.875051   x 
            x  O            8         0.374946   0.874946   0.375194   x 
            x  O            9         0.421167   0.124836   0.124170   x 
            x  O           10         0.330487   0.125412   0.625283   x 
            x  O           11         0.829168   0.623721   0.625468   x 
            x  O           12         0.919405   0.625000   0.124290   x 
            x  O           13         0.125000   0.419405   0.124290   x 
            x  O           14         0.624723   0.330233   0.124897   x 
            x  O           15         0.625412   0.830487   0.625283   x 
            x  O           16         0.125537   0.919777   0.624220   x 
            x  O           17         0.125106   0.124839   0.419846   x 
            x  O           18         0.125005   0.625005   0.330255   x 
            x  O           19         0.626810   0.624994   0.828861   x 
            x  O           20         0.624600   0.124600   0.920560   x 
            x  O           21         0.876279   0.670832   0.374532   x 
            x  O           22         0.875000   0.580595   0.875710   x 
            x  O           23         0.375164   0.078833   0.875830   x 
            x  O           24         0.374588   0.169513   0.374717   x 
            x  O           25         0.170832   0.376279   0.374532   x 
            x  O           26         0.079189   0.873774   0.374277   x 
            x  O           27         0.578833   0.875164   0.875830   x 
            x  O           28         0.670133   0.375063   0.874487   x 
            x  O           29         0.875729   0.375729   0.079981   x 
            x  O           30         0.373190   0.375006   0.171139   x 
            x  O           31         0.375108   0.875108   0.669404   x 
            x  O           32         0.874894   0.875161   0.580154   x 
            x  O           33         0.669513   0.874588   0.374717   x 
            x  O           34         0.080595   0.375000   0.875710   x 
            x  O           35         0.375277   0.669767   0.875103   x 
            x  O           36         0.874463   0.080223   0.375780   x 
            x  O           37         0.874995   0.374995   0.669745   x 
            x  O           38         0.375400   0.875400   0.079440   x 
            x  O           39         0.123721   0.329168   0.625468   x 
            x  O           40         0.624836   0.921167   0.124170   x 
            x  O           41         0.920811   0.126226   0.625723   x 
            x  O           42         0.329867   0.624937   0.125513   x 
            x  O           43         0.124271   0.624271   0.920019   x 
            x  O           44         0.624892   0.124892   0.330596   x 
            x  O           45         0.419777   0.625537   0.624220   x 
            x  O           46         0.830233   0.124723   0.124897   x 
            x  O           47         0.124994   0.126810   0.828861   x 
            x  O           48         0.624839   0.625106   0.419846   x 
            x  O           49         0.875063   0.170133   0.874487   x 
            x  O           50         0.373774   0.579189   0.374277   x 
            x  O           51         0.169767   0.875277   0.875103   x 
            x  O           52         0.580223   0.374463   0.375780   x 
            x  O           53         0.875006   0.873190   0.171139   x 
            x  O           54         0.375161   0.374894   0.580154   x 
            x  O           55         0.124937   0.829867   0.125513   x 
            x  O           56         0.626226   0.420811   0.625723   x 
            x  Zr           1         0.500000   0.500000   0.500000   x 
            x  Zr           2         0.249580   0.749580   0.000218   x 
            x  Zr           3         0.749687   0.999751   0.250497   x 
            x  Zr           4         0.750420   0.250420   0.999782   x 
            x  Zr           5         0.250313   0.000249   0.749503   x 
            x  Zr           6         0.249743   0.250257   0.500000   x 
            x  Zr           7         0.750257   0.749743   0.500000   x 
            x  Zr           8         0.499751   0.249687   0.250497   x 
            x  Zr           9         0.500249   0.750313   0.749503   x 
            x  Zr          10        -0.000000  -0.000000   0.500000   x 
            x  Sn           1         0.998865   0.251243   0.751179   x 
            x  Sn           2         0.001135   0.748757   0.248821   x 
            x  Sn           3         0.500000  -0.000000  -0.000000   x 
            x  Sn           4         0.751243   0.498865   0.751179   x 
            x  Sn           5         0.248757   0.501135   0.248821   x 
            x  Sn           6        -0.000000   0.500000  -0.000000   x 
            x  La           1        -0.000000  -0.000000  -0.000000   x 
            x  La           2         0.749690   0.249690   0.499339   x 
            x  La           3         0.250739   0.500424   0.749876   x 
            x  La           4         0.500095   0.749894   0.250432   x 
            x  La           5         0.250310   0.750310   0.500661   x 
            x  La           6         0.749261   0.499576   0.250124   x 
            x  La           7         0.499905   0.250106   0.749568   x 
            x  La           8         0.000000   0.500000   0.500000   x 
            x  La           9         0.749846   0.750154  -0.000000   x 
            x  La          10         0.249894   0.000095   0.250432   x 
            x  La          11         0.250154   0.249846  -0.000000   x 
            x  La          12         0.750106   0.999905   0.749568   x 
            x  La          13         0.500000  -0.000000   0.500000   x 
            x  La          14         0.000424   0.750739   0.749876   x 
            x  La          15         0.999576   0.249261   0.250124   x 
            x  La          16         0.500000   0.500000   0.000000   x 
            xxxxxxxxxxxxxxxxxxxxxxxxxxxxxxxxxxxxxxxxxxxxxxxxxxxxxxxxxxxx
 
 
                         No user defined ionic velocities
 
                           -------------------------------
                                   Details of Species
                           -------------------------------
 
                               Mass of species in AMU
                                    O   15.9994000
                                    Zr   91.2240000
                                    Sn  118.7100000
                                    La  138.9055000
 
                          Electric Quadrupole Moment (Barn)
                                    O   -0.0255800 Isotope 17
                                    Zr   -0.1760000 Isotope 91
                                    Sn    1.0000000 No Isotope Defined
                                    La    0.2000000 Isotope139
 
                          Files used for pseudopotentials:
                                    O 2|1.1|15|18|20|20:21(qc=7)
                                    Zr 3|2.1|7|8|9|40U:50:41:42
                                    Sn 3|2.2|7|8|9|50:51:42
                                    La 2|2.3|5|6|7|50U:60:51:52(qc=4.5)
 
                           -------------------------------
                              k-Points For BZ Sampling
                           -------------------------------
                       MP grid size for SCF calculation is  3  3  3
                            with an offset of   0.000  0.000  0.000
                       Number of kpoints used =            14
 
                           -------------------------------
                               Symmetry and Constraints
                           -------------------------------
 
                      Maximum deviation from symmetry =  0.00000         ANG
 
         There are no symmetry operations specified or generated for this cell
                      Number of ionic constraints     =           3
                      Point group of crystal =     1: C1, 1, 1
                      Space group of crystal =    12: C2/m, -C 2y
 
 
                         Centre of mass is constrained
             Set iprint > 1 for details of linear ionic constraints
 
                         Number of cell constraints= 0
                         Cell constraints are:  1 2 3 4 5 6
 
                         External pressure/stress (GPa)
                          0.00000   0.00000   0.00000
                                    0.00000   0.00000
                                              0.00000
  
+---------------- MEMORY AND SCRATCH DISK ESTIMATES PER PROCESS --------------+
|                                                     Memory          Disk    |
| Baseline code, static data and system overhead      322.0 MB         0.0 MB |
| BLAS internal memory storage                          0.0 MB         0.0 MB |
| Model and support data                             1319.6 MB         0.0 MB |
| Electronic energy minimisation requirements         380.6 MB         0.0 MB |
| Force calculation requirements                       24.1 MB         0.0 MB |
| Stress calculation requirements                      28.3 MB         0.0 MB |
|                                               ----------------------------- |
| Approx. total storage required per process         2022.2 MB         0.0 MB |
|                                                                             |
| Requirements will fluctuate during execution and may exceed these estimates |
+-----------------------------------------------------------------------------+
Calculating finite basis set correction with  3 cut-off energies.
Calculating total energy with cut-off of  806.342eV.
------------------------------------------------------------------------ <-- SCF
SCF loop      Energy           Fermi           Energy gain       Timer   <-- SCF
                               energy          per atom          (sec)   <-- SCF
------------------------------------------------------------------------ <-- SCF
Initial  -5.43507826E+004  0.00000000E+000                        75.53  <-- SCF
      1  -6.30230271E+004  7.56668375E+000   9.85482321E+001     215.38  <-- SCF
      2  -6.55947553E+004  7.01932324E+000   2.92241840E+001     309.03  <-- SCF
      3  -6.56722817E+004  6.78008022E+000   8.80982040E-001     412.64  <-- SCF
      4  -6.56683401E+004  7.72730454E+000  -4.47907235E-002     542.95  <-- SCF
      5  -6.55601307E+004  7.28789625E+000  -1.22965245E+000     670.49  <-- SCF
      6  -6.55617272E+004  7.19530891E+000   1.81424929E-002     830.45  <-- SCF
      7  -6.55614735E+004  7.27184588E+000  -2.88279083E-003     966.56  <-- SCF
      8  -6.55615326E+004  7.27467347E+000   6.70614524E-004    1138.45  <-- SCF
      9  -6.55615520E+004  7.27411350E+000   2.20907759E-004    1290.48  <-- SCF
     10  -6.55615535E+004  7.27105426E+000   1.72169125E-005    1434.69  <-- SCF
     11  -6.55615527E+004  7.27260153E+000  -9.41259941E-006    1577.64  <-- SCF
     12  -6.55615530E+004  7.27236585E+000   3.28409295E-006    1731.86  <-- SCF
     13  -6.55615530E+004  7.27179702E+000   3.70820807E-007    1870.18  <-- SCF
     14  -6.55615530E+004  7.27150426E+000  -2.97670382E-007    2004.75  <-- SCF
     15  -6.55615530E+004  7.27107161E+000  -6.44581781E-008    2149.21  <-- SCF
     16  -6.55615530E+004  7.27082532E+000  -1.66167234E-009    2277.74  <-- SCF
     17  -6.55615530E+004  7.27075056E+000   2.23581198E-011    2397.62  <-- SCF
     18  -6.55615530E+004  7.27069272E+000  -1.70146698E-010    2493.42  <-- SCF
------------------------------------------------------------------------ <-- SCF
 
Final energy, E             =  -65561.55297218     eV
Final free energy (E-TS)    =  -65561.55297218     eV
(energies not corrected for finite basis set)
 
NB est. 0K energy (E-0.5TS)      =  -65561.55297218     eV
 
Calculating total energy with cut-off of  811.342eV.
------------------------------------------------------------------------ <-- SCF
SCF loop      Energy           Fermi           Energy gain       Timer   <-- SCF
                               energy          per atom          (sec)   <-- SCF
------------------------------------------------------------------------ <-- SCF
Initial  -6.55615530E+004  0.00000000E+000                      2528.98  <-- SCF
      1  -6.55615554E+004  7.27055907E+000   2.77215132E-005    2639.86  <-- SCF
      2  -6.55615554E+004  7.27055906E+000   4.22413785E-010    2742.37  <-- SCF
      3  -6.55615554E+004  7.27061237E+000   1.62926009E-008    2861.01  <-- SCF
      4  -6.55615554E+004  7.27061210E+000  -2.29529301E-009    2968.94  <-- SCF
      5  -6.55615554E+004  7.27062720E+000  -2.08394550E-010    3056.85  <-- SCF
      6  -6.55615554E+004  7.27064601E+000  -7.49489173E-011    3143.32  <-- SCF
------------------------------------------------------------------------ <-- SCF
 
Final energy, E             =  -65561.55541284     eV
Final free energy (E-TS)    =  -65561.55541284     eV
(energies not corrected for finite basis set)
 
NB est. 0K energy (E-0.5TS)      =  -65561.55541284     eV
 
Calculating total energy with cut-off of  816.342eV.
------------------------------------------------------------------------ <-- SCF
SCF loop      Energy           Fermi           Energy gain       Timer   <-- SCF
                               energy          per atom          (sec)   <-- SCF
------------------------------------------------------------------------ <-- SCF
Initial  -6.55615554E+004  0.00000000E+000                      3178.99  <-- SCF
      1  -6.55615583E+004  7.27068861E+000   3.30800464E-005    3289.87  <-- SCF
      2  -6.55615583E+004  7.27068861E+000   2.12613064E-010    3384.00  <-- SCF
      3  -6.55615583E+004  7.27066960E+000   2.03869492E-008    3472.75  <-- SCF
      4  -6.55615583E+004  7.27066465E+000   6.19558967E-010    3560.96  <-- SCF
      5  -6.55615583E+004  7.27065904E+000  -1.24586756E-010    3647.97  <-- SCF
------------------------------------------------------------------------ <-- SCF
 
Final energy, E             =  -65561.55832573     eV
Final free energy (E-TS)    =  -65561.55832573     eV
(energies not corrected for finite basis set)
 
NB est. 0K energy (E-0.5TS)      =  -65561.55832573     eV
 
 For future reference: finite basis dEtot/dlog(Ecut) =      -0.437659eV
 Total energy corrected for finite basis set =  -65561.558327 eV
 
  =====================================================================
  +       Calculation of Nuclear Magnetic Resonance Parameters        +
  + ================================================================= +
 
  Starting Calculation of Electric Field Gradient Tensors         |<-- EFG
  +---------------- MEMORY AND SCRATCH DISK ESTIMATES PER PROCESS --------------+
  |                                                     Memory          Disk    |
  | Model and support data                             1317.4 MB         0.0 MB |
  | NMR EFG calculation requirements                    366.3 MB         0.0 MB |
  |                                               ----------------------------- |
  | Approx. total storage required per process         1683.7 MB         0.0 MB |
  |                                                                             |
  | Requirements will fluctuate during execution and may exceed these estimates |
  +-----------------------------------------------------------------------------+
  Total Time for EFG Tensors                     462.72 sec       |<-- EFG
 
  Starting Calculation of Chemical Shielding Tensors              |<-- NMR
  +---------------- MEMORY AND SCRATCH DISK ESTIMATES PER PROCESS --------------+
  |                                                     Memory          Disk    |
  | Model and support data                             1317.4 MB         0.0 MB |
  | NMR chemical shift calculation requirements         562.5 MB         0.0 MB |
  |                                               ----------------------------- |
  | Approx. total storage required per process         1879.9 MB         0.0 MB |
  |                                                                             |
  | Requirements will fluctuate during execution and may exceed these estimates |
  +-----------------------------------------------------------------------------+
  Starting k-point:   1 of   1                                    |<-- NMR
  Total Time for step 1 of 6:                   3281.98 sec       |<-- NMR
  Total Time for step 2 of 6:                   3287.64 sec       |<-- NMR
  Total Time for step 3 of 6:                   3282.42 sec       |<-- NMR
  Total Time for step 4 of 6:                   3284.02 sec       |<-- NMR
  Total Time for step 5 of 6:                   3287.02 sec       |<-- NMR
  Total Time for step 6 of 6:                   3286.04 sec       |<-- NMR
  Total Time for Chemical Shielding Tensors    28950.91 sec       |<-- NMR
 
  ========================================================================
  |           Chemical Shielding and Electric Field Gradient Tensors     |
  |----------------------------------------------------------------------|
  |     Nucleus                Shielding tensor             EFG Tensor   |
  |  Species       Ion    Iso(ppm)   Aniso(ppm)  Asym    Cq(MHz)    Eta  |
  |    O           1     -316.35     -10.38      0.77   4.710E-02   0.58 |
  |    O           2     -317.17     -11.97      0.96   2.415E-02   0.35 |
  |    O           3     -318.53      -9.25      0.20   4.946E-02   0.19 |
  |    O           4     -316.35     -10.38      0.77   4.710E-02   0.58 |
  |    O           5     -318.53      -9.25      0.20   4.946E-02   0.19 |
  |    O           6     -316.35     -10.38      0.77   4.710E-02   0.58 |
  |    O           7     -316.35     -10.37      0.77   4.710E-02   0.58 |
  |    O           8     -317.17     -11.97      0.96   2.415E-02   0.35 |
  |    O           9      -85.47      95.32      0.24  -3.174E+00   0.11 |
  |    O          10     -164.59     156.27      0.81   1.036E+00   0.92 |
  |    O          11      -86.20      89.01      0.11  -3.131E+00   0.07 |
  |    O          12      -12.68      59.11      0.48   3.914E+00   0.83 |
  |    O          13      -12.68      59.12      0.48   3.914E+00   0.83 |
  |    O          14     -161.78     145.68      0.83   1.067E+00   0.74 |
  |    O          15     -164.59     156.28      0.81   1.036E+00   0.92 |
  |    O          16     -163.11     156.07      0.79   1.078E+00   0.85 |
  |    O          17     -161.60     152.12      0.83   1.080E+00   0.80 |
  |    O          18      -11.42      57.30      0.20   3.974E+00   0.79 |
  |    O          19      -84.00      83.47      0.14  -3.153E+00   0.10 |
  |    O          20      -87.16      88.25      0.33  -3.126E+00   0.09 |
  |    O          21      -86.20      89.02      0.11  -3.131E+00   0.07 |
  |    O          22      -12.68      59.12      0.48   3.914E+00   0.83 |
  |    O          23      -85.47      95.32      0.24  -3.174E+00   0.11 |
  |    O          24     -164.59     156.28      0.81   1.036E+00   0.92 |
  |    O          25      -86.20      89.02      0.11  -3.131E+00   0.07 |
  |    O          26      -89.07      77.12      0.15  -3.199E+00   0.12 |
  |    O          27      -85.47      95.32      0.24  -3.174E+00   0.11 |
  |    O          28      -89.50      93.82      0.23  -3.193E+00   0.10 |
  |    O          29      -91.54      80.99      0.08  -3.246E+00   0.08 |
  |    O          30      -83.99      83.48      0.14  -3.153E+00   0.10 |
  |    O          31     -165.80     160.48      0.78   1.021E+00   0.99 |
  |    O          32     -161.60     152.12      0.83   1.080E+00   0.80 |
  |    O          33     -164.59     156.27      0.81   1.036E+00   0.92 |
  |    O          34      -12.68      59.11      0.48   3.914E+00   0.83 |
  |    O          35     -161.78     145.68      0.83   1.067E+00   0.74 |
  |    O          36     -163.11     156.07      0.79   1.078E+00   0.85 |
  |    O          37      -11.42      57.30      0.20   3.974E+00   0.79 |
  |    O          38      -87.16      88.25      0.32  -3.126E+00   0.09 |
  |    O          39      -86.20      89.02      0.11  -3.131E+00   0.07 |
  |    O          40      -85.47      95.32      0.24  -3.174E+00   0.11 |
  |    O          41      -89.07      77.12      0.15  -3.199E+00   0.12 |
  |    O          42      -89.50      93.81      0.23  -3.193E+00   0.10 |
  |    O          43      -91.54      80.99      0.08  -3.246E+00   0.08 |
  |    O          44     -165.80     160.48      0.78   1.021E+00   0.99 |
  |    O          45     -163.11     156.07      0.79   1.078E+00   0.85 |
  |    O          46     -161.79     145.67      0.83   1.067E+00   0.74 |
  |    O          47      -84.00      83.48      0.14  -3.153E+00   0.10 |
  |    O          48     -161.60     152.12      0.83   1.080E+00   0.80 |
  |    O          49      -89.50      93.82      0.23  -3.193E+00   0.10 |
  |    O          50      -89.07      77.12      0.15  -3.199E+00   0.12 |
  |    O          51     -161.78     145.67      0.83   1.067E+00   0.74 |
  |    O          52     -163.11     156.07      0.79   1.078E+00   0.85 |
  |    O          53      -83.99      83.48      0.14  -3.153E+00   0.10 |
  |    O          54     -161.60     152.12      0.83   1.080E+00   0.80 |
  |    O          55      -89.50      93.82      0.23  -3.193E+00   0.10 |
  |    O          56      -89.07      77.12      0.15  -3.199E+00   0.12 |
  |    Zr          1     1633.68    -130.96      0.20  -3.902E+01   0.15 |
  |    Zr          2     1612.54    -118.60      0.11  -3.712E+01   0.08 |
  |    Zr          3     1632.90    -126.13      0.06  -3.912E+01   0.04 |
  |    Zr          4     1612.53    -118.60      0.11  -3.712E+01   0.08 |
  |    Zr          5     1632.90    -126.13      0.06  -3.912E+01   0.04 |
  |    Zr          6     1634.44    -127.33      0.12  -3.861E+01   0.09 |
  |    Zr          7     1634.44    -127.33      0.12  -3.861E+01   0.09 |
  |    Zr          8     1632.90    -126.13      0.06  -3.912E+01   0.04 |
  |    Zr          9     1632.90    -126.13      0.06  -3.912E+01   0.04 |
  |    Zr         10     1633.68    -130.96      0.20  -3.902E+01   0.15 |
  |    Sn          1     3248.92     -49.29      0.64   1.267E+02   0.05 |
  |    Sn          2     3248.92     -49.29      0.64   1.267E+02   0.05 |
  |    Sn          3     3245.68     -36.36      0.33   1.300E+02   0.13 |
  |    Sn          4     3248.92     -49.29      0.64   1.267E+02   0.05 |
  |    Sn          5     3248.92     -49.29      0.64   1.267E+02   0.05 |
  |    Sn          6     3254.11     -61.38      0.70   1.238E+02   0.09 |
  |    La          1     4709.46     773.25      0.10  -8.427E+01   0.13 |
  |    La          2     4700.04     759.62      0.04  -8.002E+01   0.09 |
  |    La          3     4708.67     745.16      0.04  -8.309E+01   0.09 |
  |    La          4     4706.57     768.86      0.04  -8.306E+01   0.04 |
  |    La          5     4700.04     759.61      0.04  -8.002E+01   0.09 |
  |    La          6     4708.67     745.17      0.04  -8.309E+01   0.09 |
  |    La          7     4706.57     768.86      0.04  -8.306E+01   0.04 |
  |    La          8     4612.86     553.56      0.09  -7.747E+01   0.21 |
  |    La          9     4603.83     534.45      0.08  -7.556E+01   0.10 |
  |    La         10     4706.57     768.86      0.04  -8.306E+01   0.04 |
  |    La         11     4603.83     534.45      0.08  -7.556E+01   0.10 |
  |    La         12     4706.57     768.86      0.04  -8.306E+01   0.04 |
  |    La         13     4797.71     965.01      0.01  -8.620E+01   0.01 |
  |    La         14     4708.67     745.17      0.04  -8.309E+01   0.09 |
  |    La         15     4708.67     745.17      0.04  -8.309E+01   0.09 |
  |    La         16     4709.46     773.25      0.10  -8.427E+01   0.13 |
  ========================================================================
 
 *********************** Forces ***********************
 *                                                    *
 *            Cartesian components (eV/A)             *
 * -------------------------------------------------- *
 *                   x            y            z      *
 *                                                    *
 * O         1     -0.00160      0.00082      0.00355 *
 * O         2     -0.00323     -0.00323     -0.01428 *
 * O         3      0.01100      0.01100     -0.00068 *
 * O         4      0.00082     -0.00160      0.00355 *
 * O         5     -0.01100     -0.01100      0.00068 *
 * O         6      0.00160     -0.00082     -0.00355 *
 * O         7     -0.00082      0.00160     -0.00355 *
 * O         8      0.00323      0.00323      0.01428 *
 * O         9      0.00740     -0.01438     -0.00603 *
 * O        10     -0.00901     -0.01338     -0.00460 *
 * O        11      0.00847     -0.02925      0.02916 *
 * O        12      0.01004     -0.01139     -0.00681 *
 * O        13     -0.01139      0.01004     -0.00681 *
 * O        14      0.00593     -0.00656      0.00374 *
 * O        15     -0.01338     -0.00901     -0.00460 *
 * O        16      0.00966      0.01355     -0.00519 *
 * O        17     -0.00556     -0.00588      0.01094 *
 * O        18      0.00579      0.00579     -0.00414 *
 * O        19      0.01518     -0.01652     -0.00544 *
 * O        20     -0.00558     -0.00558     -0.00245 *
 * O        21      0.02925     -0.00847     -0.02916 *
 * O        22      0.01139     -0.01004      0.00681 *
 * O        23      0.01438     -0.00740      0.00603 *
 * O        24      0.01338      0.00901      0.00460 *
 * O        25     -0.00847      0.02925     -0.02916 *
 * O        26      0.00031     -0.01768     -0.01534 *
 * O        27     -0.00740      0.01438      0.00603 *
 * O        28      0.01489      0.01639     -0.02360 *
 * O        29      0.03402      0.03402     -0.00242 *
 * O        30     -0.01518      0.01652      0.00544 *
 * O        31      0.00471      0.00471      0.00708 *
 * O        32      0.00556      0.00588     -0.01094 *
 * O        33      0.00901      0.01338      0.00460 *
 * O        34     -0.01004      0.01139      0.00681 *
 * O        35     -0.00593      0.00656     -0.00374 *
 * O        36     -0.00966     -0.01355      0.00519 *
 * O        37     -0.00579     -0.00579      0.00414 *
 * O        38      0.00558      0.00558      0.00245 *
 * O        39     -0.02925      0.00847      0.02916 *
 * O        40     -0.01438      0.00740     -0.00603 *
 * O        41     -0.00031      0.01769      0.01534 *
 * O        42     -0.01489     -0.01639      0.02360 *
 * O        43     -0.03402     -0.03402      0.00242 *
 * O        44     -0.00471     -0.00471     -0.00708 *
 * O        45      0.01355      0.00966     -0.00519 *
 * O        46     -0.00656      0.00593      0.00374 *
 * O        47     -0.01651      0.01518     -0.00544 *
 * O        48     -0.00588     -0.00556      0.01094 *
 * O        49      0.01639      0.01489     -0.02360 *
 * O        50     -0.01768      0.00031     -0.01534 *
 * O        51      0.00656     -0.00592     -0.00374 *
 * O        52     -0.01355     -0.00966      0.00519 *
 * O        53      0.01652     -0.01518      0.00544 *
 * O        54      0.00588      0.00556     -0.01094 *
 * O        55     -0.01639     -0.01489      0.02360 *
 * O        56      0.01768     -0.00031      0.01534 *
 * Zr        1      0.00000     -0.00000     -0.00000 *
 * Zr        2      0.01485      0.01485     -0.01435 *
 * Zr        3      0.01476     -0.02134     -0.01934 *
 * Zr        4     -0.01485     -0.01485      0.01435 *
 * Zr        5     -0.01476      0.02134      0.01934 *
 * Zr        6     -0.01050      0.01050     -0.00000 *
 * Zr        7      0.01050     -0.01050     -0.00000 *
 * Zr        8     -0.02134      0.01476     -0.01934 *
 * Zr        9      0.02134     -0.01476      0.01934 *
 * Zr       10      0.00000      0.00000      0.00000 *
 * Sn        1      0.02814     -0.01678     -0.01227 *
 * Sn        2     -0.02815      0.01678      0.01227 *
 * Sn        3     -0.00000      0.00000      0.00000 *
 * Sn        4     -0.01678      0.02814     -0.01227 *
 * Sn        5      0.01678     -0.02815      0.01227 *
 * Sn        6      0.00000      0.00000      0.00000 *
 * La        1     -0.00000      0.00000     -0.00000 *
 * La        2      0.01666      0.01666      0.02723 *
 * La        3     -0.01258     -0.01218      0.00078 *
 * La        4     -0.00962      0.00223     -0.01722 *
 * La        5     -0.01666     -0.01666     -0.02723 *
 * La        6      0.01257      0.01218     -0.00078 *
 * La        7      0.00962     -0.00223      0.01722 *
 * La        8      0.00000      0.00000     -0.00000 *
 * La        9     -0.01076      0.01076      0.00000 *
 * La       10      0.00223     -0.00962     -0.01722 *
 * La       11      0.01076     -0.01076      0.00000 *
 * La       12     -0.00223      0.00962      0.01722 *
 * La       13      0.00000      0.00000     -0.00000 *
 * La       14     -0.01218     -0.01257      0.00078 *
 * La       15      0.01218      0.01258     -0.00078 *
 * La       16     -0.00000     -0.00000      0.00000 *
 *                                                    *
 ******************************************************
 
 ***************** Stress Tensor *****************
 *                                               *
 *          Cartesian components (GPa)           *
 * --------------------------------------------- *
 *             x             y             z     *
 *                                               *
 *  x      0.031211      0.023750     -0.022289  *
 *  y      0.023750      0.031211     -0.022288  *
 *  z     -0.022289     -0.022288      0.025040  *
 *                                               *
 *  Pressure:   -0.0292                          *
 *                                               *
 *************************************************
 
 Pseudo atomic calculation performed for O 2s2 2p4
 
 Converged in 39 iterations to a total energy of -432.6554 eV
 
 
 Pseudo atomic calculation performed for Zr 4s2 4p6 4d2 5s2
 
 Converged in 38 iterations to a total energy of -1285.4931 eV
 
 
 Pseudo atomic calculation performed for Sn 4d10 5s2 5p2
 
 Converged in 48 iterations to a total energy of -2044.5414 eV
 
 
 Pseudo atomic calculation performed for La 5s2 5p6 5d1 6s2
 
 Converged in 34 iterations to a total energy of -968.0372 eV
 
Charge spilling parameter for spin component 1 = 0.23%
 
     Atomic Populations (Mulliken)
     -----------------------------
Species   Ion     s      p      d      f     Total  Charge (e)
==============================================================
  O        1     1.87   5.00   0.00   0.00   6.87    -0.87
  O        2     1.87   5.00   0.00   0.00   6.87    -0.87
  O        3     1.87   5.00   0.00   0.00   6.87    -0.87
  O        4     1.87   5.00   0.00   0.00   6.87    -0.87
  O        5     1.87   5.00   0.00   0.00   6.87    -0.87
  O        6     1.87   5.00   0.00   0.00   6.87    -0.87
  O        7     1.87   5.00   0.00   0.00   6.87    -0.87
  O        8     1.87   5.00   0.00   0.00   6.87    -0.87
  O        9     1.87   4.99   0.00   0.00   6.85    -0.85
  O       10     1.86   4.94   0.00   0.00   6.80    -0.80
  O       11     1.87   4.98   0.00   0.00   6.85    -0.85
  O       12     1.88   5.02   0.00   0.00   6.91    -0.91
  O       13     1.88   5.02   0.00   0.00   6.91    -0.91
  O       14     1.86   4.95   0.00   0.00   6.80    -0.80
  O       15     1.86   4.94   0.00   0.00   6.80    -0.80
  O       16     1.86   4.94   0.00   0.00   6.80    -0.80
  O       17     1.86   4.94   0.00   0.00   6.80    -0.80
  O       18     1.88   5.03   0.00   0.00   6.91    -0.91
  O       19     1.87   4.99   0.00   0.00   6.85    -0.85
  O       20     1.87   4.98   0.00   0.00   6.85    -0.85
  O       21     1.87   4.98   0.00   0.00   6.85    -0.85
  O       22     1.88   5.02   0.00   0.00   6.91    -0.91
  O       23     1.87   4.99   0.00   0.00   6.85    -0.85
  O       24     1.86   4.94   0.00   0.00   6.80    -0.80
  O       25     1.87   4.98   0.00   0.00   6.85    -0.85
  O       26     1.87   4.98   0.00   0.00   6.85    -0.85
  O       27     1.87   4.99   0.00   0.00   6.85    -0.85
  O       28     1.87   4.99   0.00   0.00   6.86    -0.86
  O       29     1.87   4.99   0.00   0.00   6.86    -0.86
  O       30     1.87   4.99   0.00   0.00   6.85    -0.85
  O       31     1.86   4.94   0.00   0.00   6.80    -0.80
  O       32     1.86   4.94   0.00   0.00   6.80    -0.80
  O       33     1.86   4.94   0.00   0.00   6.80    -0.80
  O       34     1.88   5.02   0.00   0.00   6.91    -0.91
  O       35     1.86   4.94   0.00   0.00   6.80    -0.80
  O       36     1.86   4.94   0.00   0.00   6.80    -0.80
  O       37     1.88   5.03   0.00   0.00   6.91    -0.91
  O       38     1.87   4.98   0.00   0.00   6.85    -0.85
  O       39     1.87   4.98   0.00   0.00   6.85    -0.85
  O       40     1.87   4.99   0.00   0.00   6.85    -0.85
  O       41     1.87   4.98   0.00   0.00   6.85    -0.85
  O       42     1.87   4.99   0.00   0.00   6.86    -0.86
  O       43     1.87   4.99   0.00   0.00   6.86    -0.86
  O       44     1.86   4.94   0.00   0.00   6.80    -0.80
  O       45     1.86   4.94   0.00   0.00   6.80    -0.80
  O       46     1.86   4.95   0.00   0.00   6.80    -0.80
  O       47     1.87   4.99   0.00   0.00   6.85    -0.85
  O       48     1.86   4.94   0.00   0.00   6.80    -0.80
  O       49     1.87   4.99   0.00   0.00   6.86    -0.86
  O       50     1.87   4.98   0.00   0.00   6.85    -0.85
  O       51     1.86   4.95   0.00   0.00   6.80    -0.80
  O       52     1.86   4.94   0.00   0.00   6.80    -0.80
  O       53     1.87   4.99   0.00   0.00   6.85    -0.85
  O       54     1.86   4.94   0.00   0.00   6.80    -0.80
  O       55     1.87   4.99   0.00   0.00   6.86    -0.86
  O       56     1.87   4.98   0.00   0.00   6.85    -0.85
  Zr       1     2.37   6.48   1.93   0.00  10.78     1.22
  Zr       2     2.37   6.50   1.92   0.00  10.79     1.21
  Zr       3     2.37   6.48   1.93   0.00  10.78     1.22
  Zr       4     2.37   6.50   1.92   0.00  10.79     1.21
  Zr       5     2.37   6.48   1.93   0.00  10.78     1.22
  Zr       6     2.37   6.48   1.93   0.00  10.77     1.23
  Zr       7     2.37   6.48   1.93   0.00  10.77     1.23
  Zr       8     2.37   6.48   1.93   0.00  10.78     1.22
  Zr       9     2.37   6.48   1.93   0.00  10.78     1.22
  Zr      10     2.37   6.48   1.93   0.00  10.78     1.22
  Sn       1     1.05   1.32  10.00   0.00  12.37     1.63
  Sn       2     1.05   1.32  10.00   0.00  12.37     1.63
  Sn       3     1.05   1.32  10.00   0.00  12.37     1.63
  Sn       4     1.05   1.32  10.00   0.00  12.37     1.63
  Sn       5     1.05   1.32  10.00   0.00  12.37     1.63
  Sn       6     1.05   1.32  10.00   0.00  12.37     1.63
  La       1     2.06   6.16   1.19   0.00   9.42     1.58
  La       2     2.08   6.16   1.19   0.00   9.43     1.57
  La       3     2.06   6.17   1.19   0.00   9.42     1.58
  La       4     2.04   6.16   1.19   0.00   9.40     1.60
  La       5     2.08   6.16   1.19   0.00   9.43     1.57
  La       6     2.06   6.17   1.19   0.00   9.42     1.58
  La       7     2.04   6.16   1.19   0.00   9.40     1.60
  La       8     2.09   6.19   1.19   0.00   9.47     1.53
  La       9     2.11   6.18   1.19   0.00   9.49     1.51
  La      10     2.04   6.16   1.19   0.00   9.40     1.60
  La      11     2.11   6.18   1.19   0.00   9.49     1.51
  La      12     2.04   6.16   1.19   0.00   9.40     1.60
  La      13     2.00   6.13   1.19   0.00   9.32     1.68
  La      14     2.06   6.17   1.19   0.00   9.42     1.58
  La      15     2.06   6.17   1.19   0.00   9.42     1.58
  La      16     2.06   6.16   1.19   0.00   9.42     1.58
==============================================================
 
            Bond              Population      Length (A)
============================================================
         O 27 -- Sn 3              0.34        2.10304
         O 23 -- Sn 3              0.34        2.10304
         O 40 -- Sn 3              0.34        2.10304
         O 9  -- Sn 3              0.34        2.10304
         O 55 -- Sn 2              0.35        2.10311
         O 42 -- Sn 5              0.35        2.10311
         O 28 -- Sn 4              0.35        2.10311
         O 49 -- Sn 1              0.35        2.10311
         O 37 -- Sn 1              0.34        2.10505
         O 37 -- Sn 4              0.34        2.10505
         O 18 -- Sn 2              0.34        2.10505
         O 18 -- Sn 5              0.34        2.10505
         O 43 -- Sn 6              0.35        2.10803
         O 29 -- Sn 6              0.35        2.10803
         O 47 -- Sn 1              0.34        2.10888
         O 19 -- Sn 4              0.34        2.10888
         O 53 -- Sn 2              0.34        2.10888
         O 30 -- Sn 5              0.34        2.10888
         O 50 -- Sn 5              0.34        2.11010
         O 26 -- Sn 2              0.34        2.11010
         O 41 -- Sn 1              0.34        2.11010
         O 56 -- Sn 4              0.34        2.11010
         O 20 -- Sn 3              0.34        2.11023
         O 38 -- Sn 3              0.34        2.11023
         O 13 -- Sn 5              0.34        2.11132
         O 12 -- Sn 2              0.34        2.11132
         O 22 -- Sn 4              0.34        2.11132
         O 34 -- Sn 1              0.34        2.11132
         O 22 -- Sn 6              0.33        2.11296
         O 34 -- Sn 6              0.33        2.11296
         O 13 -- Sn 6              0.33        2.11296
         O 12 -- Sn 6              0.33        2.11296
         O 21 -- Sn 2              0.35        2.11309
         O 25 -- Sn 5              0.35        2.11309
         O 11 -- Sn 4              0.35        2.11309
         O 39 -- Sn 1              0.35        2.11309
         O 16 -- Zr 10             0.42        2.11456
         O 45 -- Zr 1              0.42        2.11456
         O 36 -- Zr 10             0.42        2.11456
         O 52 -- Zr 1              0.42        2.11456
         O 10 -- Zr 5              0.42        2.11479
         O 15 -- Zr 9              0.42        2.11479
         O 24 -- Zr 8              0.42        2.11479
         O 33 -- Zr 3              0.42        2.11479
         O 31 -- Zr 9              0.43        2.11518
         O 31 -- Zr 5              0.43        2.11518
         O 44 -- Zr 8              0.43        2.11518
         O 44 -- Zr 3              0.43        2.11518
         O 28 -- Zr 4              0.44        2.11675
         O 49 -- Zr 4              0.44        2.11675
         O 42 -- Zr 2              0.44        2.11675
         O 55 -- Zr 2              0.44        2.11675
         O 54 -- Zr 6              0.42        2.11720
         O 32 -- Zr 7              0.42        2.11720
         O 48 -- Zr 7              0.42        2.11720
         O 17 -- Zr 6              0.42        2.11720
         O 40 -- Zr 3              0.45        2.11743
         O 9  -- Zr 8              0.45        2.11743
         O 23 -- Zr 5              0.45        2.11743
         O 27 -- Zr 9              0.45        2.11743
         O 16 -- Zr 5              0.43        2.11798
         O 45 -- Zr 9              0.43        2.11798
         O 36 -- Zr 3              0.43        2.11798
         O 52 -- Zr 8              0.43        2.11798
         O 54 -- Zr 1              0.42        2.11868
         O 32 -- Zr 10             0.42        2.11868
         O 48 -- Zr 1              0.42        2.11868
         O 17 -- Zr 10             0.42        2.11868
         O 33 -- Zr 7              0.43        2.12013
         O 10 -- Zr 6              0.43        2.12013
         O 24 -- Zr 6              0.43        2.12013
         O 15 -- Zr 7              0.43        2.12013
         O 46 -- Zr 4              0.43        2.12076
         O 51 -- Zr 2              0.43        2.12076
         O 35 -- Zr 2              0.43        2.12076
         O 14 -- Zr 4              0.43        2.12076
         O 43 -- Zr 2              0.45        2.12134
         O 29 -- Zr 4              0.45        2.12134
         O 11 -- Zr 7              0.46        2.12154
         O 39 -- Zr 6              0.46        2.12154
         O 25 -- Zr 6              0.46        2.12154
         O 21 -- Zr 7              0.46        2.12154
         O 38 -- Zr 2              0.46        2.12420
         O 20 -- Zr 4              0.46        2.12420
         O 35 -- Zr 9              0.42        2.12482
         O 51 -- Zr 5              0.42        2.12482
         O 46 -- Zr 3              0.42        2.12482
         O 14 -- Zr 8              0.42        2.12482
         O 56 -- Zr 1              0.46        2.12533
         O 41 -- Zr 10             0.46        2.12533
         O 26 -- Zr 10             0.46        2.12533
         O 50 -- Zr 1              0.46        2.12533
         O 30 -- Zr 8              0.45        2.12554
         O 53 -- Zr 3              0.45        2.12554
         O 19 -- Zr 9              0.45        2.12554
         O 47 -- Zr 5              0.45        2.12554
         O 1  -- La 10             0.16        2.35996
         O 6  -- La 12             0.16        2.35996
         O 4  -- La 4              0.16        2.35996
         O 7  -- La 7              0.16        2.35996
         O 8  -- La 13             0.18        2.36009
         O 2  -- La 13             0.18        2.36009
         O 2  -- La 12             0.19        2.36013
         O 8  -- La 10             0.19        2.36013
         O 2  -- La 7              0.19        2.36013
         O 8  -- La 4              0.19        2.36013
         O 6  -- La 1              0.18        2.36013
         O 7  -- La 16             0.18        2.36013
         O 4  -- La 16             0.18        2.36013
         O 1  -- La 1              0.18        2.36013
         O 3  -- La 3              0.18        2.36097
         O 3  -- La 14             0.18        2.36097
         O 5  -- La 6              0.18        2.36097
         O 5  -- La 15             0.18        2.36097
         O 7  -- La 3              0.18        2.36170
         O 4  -- La 6              0.18        2.36170
         O 6  -- La 14             0.18        2.36170
         O 1  -- La 15             0.18        2.36170
         O 8  -- La 5              0.17        2.36216
         O 2  -- La 2              0.17        2.36216
         O 3  -- La 8              0.17        2.36254
         O 5  -- La 8              0.17        2.36254
         O 5  -- La 2              0.16        2.36284
         O 3  -- La 5              0.16        2.36284
         O 7  -- La 11             0.16        2.36365
         O 6  -- La 9              0.16        2.36365
         O 1  -- La 11             0.16        2.36365
         O 4  -- La 9              0.16        2.36365
         O 45 -- La 5              0.12        2.66019
         O 52 -- La 2              0.12        2.66019
         O 16 -- La 5              0.12        2.66019
         O 36 -- La 2              0.12        2.66019
         O 31 -- La 5              0.12        2.66203
         O 44 -- La 2              0.12        2.66203
         O 33 -- La 4              0.13        2.66421
         O 10 -- La 7              0.13        2.66421
         O 15 -- La 12             0.13        2.66421
         O 24 -- La 10             0.13        2.66421
         O 48 -- La 4              0.12        2.66699
         O 54 -- La 7              0.12        2.66699
         O 17 -- La 10             0.12        2.66699
         O 32 -- La 12             0.12        2.66699
         O 22 -- La 9              0.24        2.66705
         O 34 -- La 11             0.24        2.66705
         O 12 -- La 9              0.24        2.66705
         O 13 -- La 11             0.24        2.66705
         O 46 -- La 15             0.13        2.66801
         O 14 -- La 6              0.13        2.66801
         O 51 -- La 14             0.13        2.66801
         O 35 -- La 3              0.13        2.66801
         O 14 -- La 16             0.14        2.67009
         O 46 -- La 1              0.14        2.67009
         O 35 -- La 16             0.14        2.67009
         O 51 -- La 1              0.14        2.67009
         O 32 -- La 14             0.14        2.67166
         O 17 -- La 15             0.14        2.67166
         O 54 -- La 3              0.14        2.67166
         O 48 -- La 6              0.14        2.67166
         O 44 -- La 13             0.12        2.67185
         O 31 -- La 13             0.12        2.67185
         O 53 -- La 9              0.19        2.67244
         O 30 -- La 11             0.19        2.67244
         O 47 -- La 11             0.19        2.67244
         O 19 -- La 9              0.19        2.67244
         O 24 -- La 13             0.11        2.67415
         O 15 -- La 13             0.11        2.67415
         O 33 -- La 13             0.11        2.67415
         O 10 -- La 13             0.11        2.67415
         O 36 -- La 15             0.14        2.67461
         O 52 -- La 6              0.14        2.67461
         O 16 -- La 14             0.14        2.67461
         O 45 -- La 3              0.14        2.67461
         O 42 -- La 4              0.17        2.67532
         O 49 -- La 12             0.17        2.67532
         O 28 -- La 7              0.17        2.67532
         O 55 -- La 10             0.17        2.67532
         O 18 -- La 8              0.23        2.67568
         O 37 -- La 8              0.23        2.67568
         O 39 -- La 8              0.18        2.67583
         O 25 -- La 8              0.18        2.67583
         O 21 -- La 8              0.18        2.67583
         O 11 -- La 8              0.18        2.67583
         O 9  -- La 11             0.18        2.67658
         O 40 -- La 9              0.18        2.67658
         O 23 -- La 11             0.18        2.67658
         O 27 -- La 9              0.18        2.67658
         O 43 -- La 14             0.18        2.67695
         O 43 -- La 3              0.18        2.67695
         O 29 -- La 15             0.18        2.67695
         O 29 -- La 6              0.18        2.67695
         O 49 -- La 1              0.18        2.67748
         O 28 -- La 16             0.18        2.67748
         O 42 -- La 16             0.18        2.67748
         O 55 -- La 1              0.18        2.67748
         O 18 -- La 5              0.22        2.68020
         O 37 -- La 2              0.22        2.68020
         O 41 -- La 2              0.18        2.68120
         O 56 -- La 2              0.18        2.68120
         O 26 -- La 5              0.18        2.68120
         O 50 -- La 5              0.18        2.68120
         O 38 -- La 4              0.18        2.68266
         O 20 -- La 7              0.18        2.68266
         O 38 -- La 10             0.18        2.68266
         O 20 -- La 12             0.18        2.68266
         O 56 -- La 7              0.18        2.68391
         O 41 -- La 12             0.18        2.68391
         O 26 -- La 10             0.18        2.68391
         O 50 -- La 4              0.18        2.68391
         O 34 -- La 3              0.24        2.68569
         O 22 -- La 14             0.24        2.68569
         O 12 -- La 6              0.24        2.68569
         O 13 -- La 15             0.24        2.68569
         O 39 -- La 3              0.19        2.69180
         O 11 -- La 14             0.19        2.69180
         O 21 -- La 6              0.19        2.69180
         O 25 -- La 15             0.19        2.69180
         O 40 -- La 4              0.17        2.69282
         O 23 -- La 7              0.17        2.69282
         O 9  -- La 10             0.17        2.69282
         O 27 -- La 12             0.17        2.69282
         O 30 -- La 16             0.19        2.69624
         O 53 -- La 1              0.19        2.69624
         O 19 -- La 16             0.19        2.69624
         O 47 -- La 1              0.19        2.69624
         O 12 -- O 22             -0.05        2.79546
         O 13 -- O 34             -0.05        2.79546
         O 19 -- O 22             -0.06        2.79590
         O 34 -- O 47             -0.06        2.79590
         O 12 -- O 53             -0.06        2.79590
         O 13 -- O 30             -0.06        2.79590
         O 9  -- O 23             -0.06        2.79903
         O 27 -- O 40             -0.06        2.79903
         O 18 -- O 50             -0.06        2.79928
         O 18 -- O 26             -0.06        2.79928
         O 37 -- O 41             -0.06        2.79928
         O 37 -- O 56             -0.06        2.79928
         O 42 -- O 50             -0.06        2.79980
         O 26 -- O 55             -0.06        2.79980
         O 41 -- O 49             -0.06        2.79980
         O 28 -- O 56             -0.06        2.79980
         O 18 -- O 25             -0.06        2.80009
         O 18 -- O 21             -0.06        2.80009
         O 11 -- O 37             -0.06        2.80009
         O 37 -- O 39             -0.06        2.80009
         O 22 -- O 43             -0.06        2.80200
         O 34 -- O 43             -0.06        2.80200
         O 12 -- O 29             -0.06        2.80200
         O 13 -- O 29             -0.06        2.80200
         O 16 -- O 31             -0.04        2.80776
         O 31 -- O 45             -0.04        2.80776
         O 36 -- O 44             -0.04        2.80776
         O 44 -- O 52             -0.04        2.80776
         O 20 -- O 27             -0.06        2.80853
         O 20 -- O 23             -0.06        2.80853
         O 9  -- O 38             -0.06        2.80853
         O 38 -- O 40             -0.06        2.80853
         O 33 -- O 48             -0.04        2.80878
         O 17 -- O 24             -0.04        2.80878
         O 10 -- O 54             -0.04        2.80878
         O 15 -- O 32             -0.04        2.80878
         O 19 -- O 28             -0.06        2.81071
         O 47 -- O 49             -0.06        2.81071
         O 53 -- O 55             -0.06        2.81071
         O 30 -- O 42             -0.06        2.81071
         O 12 -- O 21             -0.05        2.81411
         O 13 -- O 25             -0.05        2.81411
         O 34 -- O 39             -0.05        2.81411
         O 11 -- O 22             -0.05        2.81411
         O 24 -- O 44             -0.03        2.81419
         O 33 -- O 44             -0.03        2.81419
         O 10 -- O 31             -0.03        2.81419
         O 15 -- O 31             -0.03        2.81419
         O 52 -- O 56             -0.03        2.81663
         O 36 -- O 41             -0.03        2.81663
         O 16 -- O 26             -0.03        2.81663
         O 45 -- O 50             -0.03        2.81663
         O 15 -- O 33             -0.03        2.81720
         O 10 -- O 24             -0.03        2.81720
         O 48 -- O 52             -0.03        2.81783
         O 17 -- O 36             -0.03        2.81783
         O 45 -- O 54             -0.03        2.81783
         O 16 -- O 32             -0.03        2.81783
         O 14 -- O 28             -0.03        2.81942
         O 46 -- O 49             -0.03        2.81942
         O 35 -- O 42             -0.03        2.81942
         O 51 -- O 55             -0.03        2.81942
         O 16 -- O 51             -0.03        2.82042
         O 36 -- O 46             -0.03        2.82042
         O 35 -- O 45             -0.03        2.82042
         O 14 -- O 52             -0.03        2.82042
         O 10 -- O 23             -0.03        2.82171
         O 33 -- O 40             -0.03        2.82171
         O 15 -- O 27             -0.03        2.82171
         O 9  -- O 24             -0.03        2.82171
         O 38 -- O 42             -0.03        2.82263
         O 20 -- O 28             -0.03        2.82263
         O 20 -- O 49             -0.03        2.82263
         O 38 -- O 55             -0.03        2.82263
         O 9  -- O 30             -0.03        2.82397
         O 40 -- O 53             -0.03        2.82397
         O 23 -- O 47             -0.03        2.82397
         O 19 -- O 27             -0.03        2.82397
         O 43 -- O 51             -0.03        2.82607
         O 35 -- O 43             -0.03        2.82607
         O 29 -- O 46             -0.03        2.82607
         O 14 -- O 29             -0.03        2.82607
         O 54 -- O 56             -0.03        2.82761
         O 32 -- O 41             -0.03        2.82761
         O 17 -- O 26             -0.03        2.82761
         O 48 -- O 50             -0.03        2.82761
         O 14 -- O 30             -0.03        2.83152
         O 46 -- O 53             -0.03        2.83152
         O 19 -- O 35             -0.03        2.83152
         O 47 -- O 51             -0.03        2.83152
         O 39 -- O 54             -0.03        2.83186
         O 11 -- O 32             -0.03        2.83186
         O 17 -- O 25             -0.03        2.83186
         O 21 -- O 48             -0.03        2.83186
         O 25 -- O 39             -0.03        2.83276
         O 11 -- O 21             -0.03        2.83276
============================================================
 

Writing analysis data to 059.castep_bin

Writing model to 059.check
 
 A BibTeX formatted list of references used in this run has been written to 
 059.bib
 
Initialisation time =     53.97 s
Calculation time    =  33483.83 s
Finalisation time   =     45.67 s
Total time          =  33583.47 s
Peak Memory Use     = 2839600 kB
  
Overall parallel efficiency rating: Good (79%)                                  
  
Data was distributed by:-
G-vector (4-way); efficiency rating: Good (79%)                                 
k-point (14-way); efficiency rating: Excellent (99%)                            
