 +-------------------------------------------------+
 |                                                 |
 |      CCC   AA    SSS  TTTTT  EEEEE  PPPP        |
 |     C     A  A  S       T    E      P   P       |
 |     C     AAAA   SS     T    EEE    PPPP        |
 |     C     A  A     S    T    E      P           |
 |      CCC  A  A  SSS     T    EEEEE  P           |
 |                                                 |
 +-------------------------------------------------+
 |                                                 |
 | Welcome to Academic Release CASTEP version 16.11|          
 | Ab Initio Total Energy Program                  |
 |                                                 |
 | Authors:                                        |
 | M. Segall, M. Probert, C. Pickard, P. Hasnip,   |
 | S. Clark, K. Refson, J. R. Yates, M. Payne      |
 |                                                 |
 | Contributors:                                   |
 | P. Lindan, P. Haynes, J. White, V. Milman,      |
 | N. Govind, M. Gibson, P. Tulip, V. Cocula,      |
 | B. Montanari, D. Quigley, M. Glover,            |
 | L. Bernasconi, A. Perlov, M. Plummer,           |
 | E. McNellis, J. Meyer, J. Gale, D. Jochym       |
 | J. Aarons, B. Walker, R. Gillen, D. Jones       |
 | T. Green, I. J. Bush, C. J. Armstrong,          |
 | E. J. Higgins, E. L. Brown, M. S. McFly         |
 |                                                 |
 | Copyright (c) 2000 - 2015                       |
 |                                                 |
 |     Distributed under the terms of an           |
 |     Agreement between the United Kingdom        |
 |     Car-Parrinello (UKCP) Consortium,           |
 |     Daresbury Laboratory and Accelrys, Inc.     |
 |                                                 |
 | Please cite                                     |
 |                                                 |
 |     "First principles methods using CASTEP"     |
 |                                                 |
 |         Zeitschrift fuer Kristallographie       |
 |           220(5-6) pp. 567-570 (2005)           |
 |                                                 |
 | S. J. Clark, M. D. Segall, C. J. Pickard,       |
 | P. J. Hasnip, M. J. Probert, K. Refson,         |
 | M. C. Payne                                     |
 |                                                 |
 |       in all publications arising from          |
 |              your use of CASTEP                 |
 |                                                 |
 +-------------------------------------------------+
 
 
 Compiled for linux_x86_64_ifort16 on Sat, 23 Jul 2016 23:44:54 +0100
 from code version 
 203e84763863+ Castep161_branch Fri, 04 Mar 2016 19:21:07 +0000
 Compiler: Intel Fortran 16.0.3.210; Optimisation: fast
 MATHLIBS: Intel MKL(11.3.3) (LAPACK version 3.6.0)
 FFT Lib : mkl
 Fundamental constants values: CODATA 2010
 
 Run started: Sun, 18 Mar 2018 23:32:12 +0000
 +-------------------------------------------------+
 |                                                 |
 |           N   N    M   M    RRRR                |
 |           NN  N    MM MM    R   R               |
 |           N N N    M M M    RRRR                |
 |           N  NN    M   M    R  R                |
 |           N   N    M   M    R   R               |
 |                                                 |
 +-------------------------------------------------+
 |                                                 |
 | Welcome to Materials Studio CASTEP-NMR          |
 |                                                 |
 | Authors:                                        |
 | J.R. Yates, C.J. Pickard, F. Mauri              |
 |                                                 |
 | Contributors:                                   |
 | T.F.G. Green, S.A. Joyce                        |
 |                                                 |
 | Copyright (c) 2004 - 2015                       |
 |                                                 |
 | Please cite the appropriate publications in all |
 | work arising from your use of CASTEP NMR.       |
 |                                                 |
 | For NMR Shielding Tensors cite:                 |
 |    "All-electron magnetic response with         |
 |    pseudopotentials: NMR chemical shifts",      |
 |    C. J. Pickard, F. Mauri;                     |
 |    Physical Review B63 245101 (2001), and       |
 |                                                 |
 |    "Calculation of NMR Chemical Shifts          |
 |    for extended systems using                   |
 |    Ultrasoft Pseudopotentials",                 |
 |    J. R. Yates, C. J. Pickard and F. Mauri      |
 |    Physical Review B76 024401 (2007)            |
 |                                                 |
 | For Electric Field Gradients cite:              |
 |   "Accurate First Principles Prediction of 17O  |
 |    NMR Parameters in SiO2: Assignment of the    |
 |    Zeolite Ferrierite Spectrum"                 |
 |    M. Profeta, F. Mauri and C. J. Pickard       |
 |    J. Amer. Chem. Soc. 125 541 (2003)           |
 |                                                 |
 | For Spin-Spin (J) Couplings cite:               |
 |   "A first principles theory of NMR J-coupling  |
 |   in solid-state systems"                       |
 |   S.A. Joyce, J.R. Yates, C.J. Pickard, F. Mauri|
 |   J. Chem. Phys. 127 204107 (2007)              |
 |                                                 |
 |   "Relativistic NMR J-coupling with ultrasoft   |
 |   pseudopotentials and the zeroth-order regular |
 |   approximation"                                |
 |   T.F.G. Green and J.R. Yates                   |
 |   J. Chem. Phys. 140 234106 (2014)              |
 |                                                 |
 +-------------------------------------------------+
 
 
 Atomic calculation performed for O: 1s2 2s2 2p4
 
 Converged in 44 iterations to an ae energy of -2040.855 eV
 
 
 Atomic calculation performed for O: 1s2 2s2 2p4
 
 Exceeded max iterations: converged to 0.000000062 eV
 
   ============================================================                
   | Pseudopotential Report - Date of generation 18-03-2018   |                
   ------------------------------------------------------------                
   | Element: O Ionic charge:  6.00 Level of theory: PBE      |                
   | Atomic Solver: ZORA (scalar)                             |                
   |                                                          |                
   |               Reference Electronic Structure             |                
   |         Orbital         Occupation         Energy        |                
   |            2s              2.000           -0.881        |                
   |            2p              4.000           -0.332        |                
   |                                                          |                
   |                 Pseudopotential Definition               |                
   |        Beta     l      e      Rc     scheme   norm       |                
   |          1      0   -0.881   1.100     qc      0         |                
   |          2      0    0.250   1.100     qc      0         |                
   |          3      1   -0.332   1.100     qc      0         |                
   |          4      1    0.250   1.100     qc      0         |                
   |         loc     2    0.000   1.100     pn      0         |                
   |                                                          |                
   | Augmentation charge Rinner = 0.769                       |                
   | Partial core correction Rc = 0.769                       |                
   ------------------------------------------------------------                
   | "2|1.1|15|18|20|20:21(qc=7)"                             |                
   ------------------------------------------------------------                
   |      Author: Chris J. Pickard, Cambridge University      |                
   ============================================================                
 
 Atomic calculation performed for Zr: 1s2 2s2 2p6 3s2 3p6 3d10 4s2 4p6 4d2 5s2
 
 Converged in 53 iterations to an ae energy of -97719.888 eV
 
 
 Atomic calculation performed for Zr: 1s2 2s2 2p6 3s2 3p6 3d10 4s2 4p6 4d2 5s2
 
 Exceeded max iterations: converged to 0.000000970 eV
 
 Warning: ion_atom_descreen_psp: negative charge density encountered
   ============================================================                
   | Pseudopotential Report - Date of generation 18-03-2018   |                
   ------------------------------------------------------------                
   | Element: Zr Ionic charge: 12.00 Level of theory: PBE     |                
   | Atomic Solver: ZORA (scalar)                             |                
   |                                                          |                
   |               Reference Electronic Structure             |                
   |         Orbital         Occupation         Energy        |                
   |            4s              2.000           -2.003        |                
   |            4p              6.000           -1.193        |                
   |            5s              2.000           -0.163        |                
   |            4d              2.000           -0.132        |                
   |                                                          |                
   |                 Pseudopotential Definition               |                
   |        Beta     l      e      Rc     scheme   norm       |                
   |          1      0   -2.003   2.105     qc      0         |                
   |          2      0   -0.163   2.105     qc      0         |                
   |          3      0    0.250   2.105     qc      0         |                
   |          4      1   -1.193   2.105     qc      0         |                
   |          5      1    0.250   2.105     qc      0         |                
   |          6      2   -0.132   2.105     qc      0         |                
   |          7      2    0.250   2.105     qc      0         |                
   |         loc     3    0.000   2.105     pn      0         |                
   |                                                          |                
   | Augmentation charge Rinner = 1.471                       |                
   | Partial core correction Rc = 1.471                       |                
   ------------------------------------------------------------                
   | "3|2.1|7|8|9|40U:50:41:42"                               |                
   ------------------------------------------------------------                
   |      Author: Chris J. Pickard, Cambridge University      |                
   ============================================================                
 
 Atomic calculation performed for Sn:
 1s2 2s2 2p6 3s2 3p6 3d10 4s2 4p6 4d10 5s2 5p2
 
 Converged in 58 iterations to an ae energy of -167539.320 eV
 
 
 Atomic calculation performed for Sn:
 1s2 2s2 2p6 3s2 3p6 3d10 4s2 4p6 4d10 5s2 5p2
 
 Exceeded max iterations: converged to 0.000001154 eV
 
   ============================================================                
   | Pseudopotential Report - Date of generation 18-03-2018   |                
   ------------------------------------------------------------                
   | Element: Sn Ionic charge: 14.00 Level of theory: PBE     |                
   | Atomic Solver: ZORA (scalar)                             |                
   |                                                          |                
   |               Reference Electronic Structure             |                
   |         Orbital         Occupation         Energy        |                
   |            4d             10.000           -0.950        |                
   |            5s              2.000           -0.388        |                
   |            5p              2.000           -0.136        |                
   |                                                          |                
   |                 Pseudopotential Definition               |                
   |        Beta     l      e      Rc     scheme   norm       |                
   |          1      0   -0.388   2.199     qc      0         |                
   |          2      0    0.250   2.199     qc      0         |                
   |          3      1   -0.136   2.199     qc      0         |                
   |          4      1    0.250   2.199     qc      0         |                
   |          5      2   -0.950   2.199     qc      0         |                
   |          6      2    0.250   2.199     qc      0         |                
   |         loc     3    0.000   2.199     pn      0         |                
   |                                                          |                
   | Augmentation charge Rinner = 1.537                       |                
   | Partial core correction Rc = 1.537                       |                
   ------------------------------------------------------------                
   | "3|2.2|7|8|9|50:51:42"                                   |                
   ------------------------------------------------------------                
   |      Author: Chris J. Pickard, Cambridge University      |                
   ============================================================                
 
 Atomic calculation performed for La:
 1s2 2s2 2p6 3s2 3p6 3d10 4s2 4p6 4d10 5s2 5p6 5d1 6s2
 
 Converged in 56 iterations to an ae energy of -230121.495 eV
 
 
 Atomic calculation performed for La:
 1s2 2s2 2p6 3s2 3p6 3d10 4s2 4p6 4d10 5s2 5p6 5d1 6s2
 
 Exceeded max iterations: converged to 0.000000907 eV
 
 Warning: ion_atom_descreen_psp: negative charge density encountered
   ============================================================                
   | Pseudopotential Report - Date of generation 18-03-2018   |                
   ------------------------------------------------------------                
   | Element: La Ionic charge: 11.00 Level of theory: PBE     |                
   | Atomic Solver: ZORA (scalar)                             |                
   |                                                          |                
   |               Reference Electronic Structure             |                
   |         Orbital         Occupation         Energy        |                
   |            5s              2.000           -1.430        |                
   |            5p              6.000           -0.823        |                
   |            6s              2.000           -0.135        |                
   |            5d              1.000           -0.114        |                
   |                                                          |                
   |                 Pseudopotential Definition               |                
   |        Beta     l      e      Rc     scheme   norm       |                
   |          1      0   -1.430   2.298     qc      0         |                
   |          2      0   -0.135   2.298     qc      0         |                
   |          3      0    0.250   2.298     qc      0         |                
   |          4      1   -0.823   2.298     qc      0         |                
   |          5      1    0.250   2.298     qc      0         |                
   |          6      2   -0.114   2.298     qc      0         |                
   |          7      2    0.250   2.298     qc      0         |                
   |         loc     2    0.000   2.298     pn      0         |                
   |                                                          |                
   | Augmentation charge Rinner = 1.606                       |                
   | Partial core correction Rc = 1.606                       |                
   ------------------------------------------------------------                
   | "2|2.3|5|6|7|50U:60:51:52(qc=4.5)"                       |                
   ------------------------------------------------------------                
   |      Author: Chris J. Pickard, Cambridge University      |                
   ============================================================                
 
 Pseudo atomic calculation performed for O 2s2 2p4
 
 Converged in 39 iterations to a total energy of -432.6554 eV
 
 
 Pseudo atomic calculation performed for Zr 4s2 4p6 4d2 5s2
 
 Converged in 38 iterations to a total energy of -1285.4931 eV
 
 
 Pseudo atomic calculation performed for Sn 4d10 5s2 5p2
 
 Converged in 48 iterations to a total energy of -2044.5414 eV
 
 
 Pseudo atomic calculation performed for La 5s2 5p6 5d1 6s2
 
 Converged in 34 iterations to a total energy of -968.0372 eV
 
 Calculation parallelised over 56 processes.
 Data is distributed by G-vector(4-way) and k-point(14-way)

 ************************************ Title ************************************
 nmr testing

 ***************************** General Parameters ******************************
  
 output verbosity                               : normal  (1)
 write checkpoint data to                       : 061.check
 type of calculation                            : Magnetic Resonance
 stress calculation                             : on
 density difference calculation                 : off
 electron localisation func (ELF) calculation   : off
 Hirshfeld analysis                             : off
 unlimited duration calculation
 timing information                             : on
 memory usage estimate                          : on
 write final potential to formatted file        : off
 write final density to formatted file          : off
 write structure in CIF formatted file          : on
 write structure in CELL formatted file         : on
 write BibTeX reference list                    : on
 write OTFG pseudopotential files               : on
 checkpoint writing                             : both castep_bin and check files
  
 output         length unit                     : A
 output           mass unit                     : amu
 output           time unit                     : ps
 output         charge unit                     : e
 output           spin unit                     : hbar/2
 output         energy unit                     : eV
 output          force unit                     : eV/A
 output       velocity unit                     : A/ps
 output       pressure unit                     : GPa
 output     inv_length unit                     : 1/A
 output      frequency unit                     : cm-1
 output force constant unit                     : eV/A**2
 output         volume unit                     : A**3
 output   IR intensity unit                     : (D/A)**2/amu
 output         dipole unit                     : D
 output         efield unit                     : eV/A/e
 output        entropy unit                     : J/mol/K
  
 wavefunctions paging                           : none
 random number generator seed                   : randomised (233214974)
 data distribution                              : optimal for this architecture
 optimization strategy                          : maximize speed(+++)

 *********************** Exchange-Correlation Parameters ***********************
  
 using functional                               : Perdew Burke Ernzerhof
 relativistic treatment                         : ZORA
 DFT+D: Semi-empirical dispersion correction    : off

 ************************* Pseudopotential Parameters **************************
  
 pseudopotential representation                 : reciprocal space
 <beta|phi> representation                      : reciprocal space
 spin-orbit coupling                            : off

 **************************** Basis Set Parameters *****************************
  
 plane wave basis set cut-off                   :   816.3416   eV
 size of standard grid                          :     1.7500
 size of   fine   gmax                          :    25.6161   1/A
 finite basis set correction                    : automatic
 number of sample energies                      :          3
           sample  spacing                      :     5.0000   eV

 **************************** Electronic Parameters ****************************
  
 number of  electrons                           :  716.0    
 net charge of system                           :  0.000    
 treating system as non-spin-polarized
 number of bands                                :        430

 ********************* Electronic Minimization Parameters **********************
  
 Method: Treating system as metallic with density mixing treatment of electrons,
         and number of  SD  steps               :          1
         and number of  CG  steps               :          4
  
 total energy / atom convergence tol.           : 0.1000E-08   eV
 eigen-energy convergence tolerance             : 0.2458E-09   eV
 max force / atom convergence tol.              : ignored
 convergence tolerance window                   :          3   cycles
 max. number of SCF cycles                      :         50
 number of fixed-spin iterations                :         10
 smearing scheme                                : Gaussian
 smearing width                                 : 0.2000       eV
 Fermi energy convergence tolerance             : 0.2721E-13   eV
 periodic dipole correction                     : NONE

 ************************** Density Mixing Parameters **************************
  
 density-mixing scheme                          : Broyden
 max. length of mixing history                  :         20
 charge density mixing amplitude                : 0.8000    
 cut-off energy for mixing                      :  816.3       eV

 *********************** Population Analysis Parameters ************************
  
 Population analysis with cutoff                :  3.000       A

 ************************ Magnetic Resonance Parameters ************************
  
 Magnetic Resonance Property                    : Chemical Shielding + EFG
 Position Operator Method                       : crystal
 max. number of MagRes CG steps                 :        250
 convergence tolerance window                   :          2   cycles
 energy convergence tolerance                   : 0.1000E-11   eV
 band convergence tolerance                     : 0.1000E-08   eV

 *******************************************************************************
  
 
                           -------------------------------
                                      Unit Cell
                           -------------------------------
        Real Lattice(A)                      Reciprocal Lattice(1/A)
  10.9071645   0.0004209   0.0001567        0.5760604  -0.0000223  -0.0000083
   0.0004212  10.9041069  -0.0058263       -0.0000222   0.5762221   0.0003078
   0.0001577  -0.0058275  10.9077721       -0.0000083   0.0003078   0.5760285
 
                       Lattice parameters(A)       Cell Angles
                    a =   10.907164          alpha =   90.061224
                    b =   10.904109          beta  =   89.998350
                    c =   10.907774          gamma =   89.995576
 
                       Current cell volume = 1297.292463       A**3
 
                           -------------------------------
                                     Cell Contents
                           -------------------------------
                         Total number of ions in cell =   88
                      Total number of species in cell =    4
                        Max number of any one species =   56
 
            xxxxxxxxxxxxxxxxxxxxxxxxxxxxxxxxxxxxxxxxxxxxxxxxxxxxxxxxxxxx
            x  Element    Atom        Fractional coordinates of atoms  x
            x            Number           u          v          w      x
            x----------------------------------------------------------x
            x  O            1         0.124999   0.125025   0.125014   x 
            x  O            2         0.625119   0.124950   0.624873   x 
            x  O            3         0.125031   0.624979   0.624913   x 
            x  O            4         0.625135   0.624987   0.125025   x 
            x  O            5         0.874824   0.374999   0.374876   x 
            x  O            6         0.874847   0.874956   0.875075   x 
            x  O            7         0.375374   0.375022   0.875082   x 
            x  O            8         0.375045   0.874928   0.374538   x 
            x  O            9         0.420231   0.124891   0.125214   x 
            x  O           10         0.330803   0.124556   0.624995   x 
            x  O           11         0.829956   0.625157   0.625251   x 
            x  O           12         0.920781   0.624213   0.124174   x 
            x  O           13         0.124258   0.420844   0.124179   x 
            x  O           14         0.625450   0.330316   0.125323   x 
            x  O           15         0.624066   0.829109   0.625581   x 
            x  O           16         0.125430   0.919270   0.625053   x 
            x  O           17         0.125010   0.125026   0.419422   x 
            x  O           18         0.124990   0.625030   0.329904   x 
            x  O           19         0.624618   0.626001   0.829273   x 
            x  O           20         0.625297   0.124556   0.920134   x 
            x  O           21         0.874401   0.669722   0.374337   x 
            x  O           22         0.874974   0.579239   0.875859   x 
            x  O           23         0.373756   0.079185   0.874170   x 
            x  O           24         0.373987   0.171063   0.376343   x 
            x  O           25         0.170800   0.373624   0.375595   x 
            x  O           26         0.079097   0.876000   0.376241   x 
            x  O           27         0.579228   0.874282   0.874475   x 
            x  O           28         0.669501   0.375533   0.875318   x 
            x  O           29         0.875551   0.375605   0.079363   x 
            x  O           30         0.374642   0.374873   0.169922   x 
            x  O           31         0.374446   0.875556   0.669150   x 
            x  O           32         0.875594   0.876305   0.579024   x 
            x  O           33         0.669784   0.875169   0.375379   x 
            x  O           34         0.080670   0.374478   0.874494   x 
            x  O           35         0.375122   0.670778   0.874251   x 
            x  O           36         0.876169   0.079000   0.376131   x 
            x  O           37         0.875849   0.373891   0.670442   x 
            x  O           38         0.374951   0.874803   0.080616   x 
            x  O           39         0.125108   0.330712   0.625493   x 
            x  O           40         0.625317   0.919680   0.124556   x 
            x  O           41         0.919476   0.125076   0.625181   x 
            x  O           42         0.330622   0.624768   0.124663   x 
            x  O           43         0.124735   0.623810   0.921046   x 
            x  O           44         0.625024   0.125012   0.329640   x 
            x  O           45         0.421218   0.625928   0.625606   x 
            x  O           46         0.829740   0.125521   0.125427   x 
            x  O           47         0.125211   0.125305   0.830748   x 
            x  O           48         0.625018   0.624914   0.419353   x 
            x  O           49         0.875927   0.170724   0.873924   x 
            x  O           50         0.374753   0.580157   0.375257   x 
            x  O           51         0.170544   0.875639   0.873953   x 
            x  O           52         0.580304   0.375249   0.374953   x 
            x  O           53         0.874545   0.874294   0.169850   x 
            x  O           54         0.373546   0.374450   0.578975   x 
            x  O           55         0.125127   0.830331   0.125231   x 
            x  O           56         0.625030   0.419648   0.624899   x 
            x  Zr           1         0.499945   0.500095   0.499837   x 
            x  Zr           2         0.250477   0.750309   1.000064   x 
            x  Zr           3         0.750672   0.999646   0.250739   x 
            x  Zr           4         0.750663   0.251142   0.999609   x 
            x  Zr           5         0.999745   0.749856   0.250048   x 
            x  Zr           6         0.499571   0.999426   0.999850   x 
            x  Zr           7         0.749924   0.499824   0.750566   x 
            x  Zr           8         0.749732   0.750186   0.499863   x 
            x  Zr           9         0.249876   0.499855   0.249981   x 
            x  Zr          10         0.499678   0.250691   0.250904   x 
            x  Sn           1         0.001015   0.249110   0.749151   x 
            x  Sn           2         0.249129   0.000867   0.749038   x 
            x  Sn           3         0.248464   0.248458   0.501599   x 
            x  Sn           4         0.999512   0.499235   0.999280   x 
            x  Sn           5         0.499186   0.750862   0.750444   x 
            x  Sn           6         0.001575   0.001487   0.501604   x 
            x  La           1         0.999930   0.999668   0.000433   x 
            x  La           2         0.749479   0.250396   0.499913   x 
            x  La           3         0.250236   0.500215   0.750138   x 
            x  La           4         0.499946   0.749810   0.249859   x 
            x  La           5         0.250063   0.749512   0.499339   x 
            x  La           6         0.749696   0.500138   0.250308   x 
            x  La           7         0.500635   0.250214   0.750188   x 
            x  La           8         0.999637   0.500541   0.499716   x 
            x  La           9         0.749970   0.750211   0.000331   x 
            x  La          10         0.250207   0.999643   0.249292   x 
            x  La          11         0.250593   0.249956   0.000432   x 
            x  La          12         0.749709   0.000196   0.750405   x 
            x  La          13         0.500413   0.999871   0.499468   x 
            x  La          14         0.999582   0.749674   0.749854   x 
            x  La          15         0.999638   0.249892   0.249680   x 
            x  La          16         0.500068   0.499871   0.000307   x 
            xxxxxxxxxxxxxxxxxxxxxxxxxxxxxxxxxxxxxxxxxxxxxxxxxxxxxxxxxxxx
 
 
                         No user defined ionic velocities
 
                           -------------------------------
                                   Details of Species
                           -------------------------------
 
                               Mass of species in AMU
                                    O   15.9994000
                                    Zr   91.2240000
                                    Sn  118.7100000
                                    La  138.9055000
 
                          Electric Quadrupole Moment (Barn)
                                    O   -0.0255800 Isotope 17
                                    Zr   -0.1760000 Isotope 91
                                    Sn    1.0000000 No Isotope Defined
                                    La    0.2000000 Isotope139
 
                          Files used for pseudopotentials:
                                    O 2|1.1|15|18|20|20:21(qc=7)
                                    Zr 3|2.1|7|8|9|40U:50:41:42
                                    Sn 3|2.2|7|8|9|50:51:42
                                    La 2|2.3|5|6|7|50U:60:51:52(qc=4.5)
 
                           -------------------------------
                              k-Points For BZ Sampling
                           -------------------------------
                       MP grid size for SCF calculation is  3  3  3
                            with an offset of   0.000  0.000  0.000
                       Number of kpoints used =            14
 
                           -------------------------------
                               Symmetry and Constraints
                           -------------------------------
 
                      Maximum deviation from symmetry =  0.00000         ANG
 
         There are no symmetry operations specified or generated for this cell
                      Number of ionic constraints     =           3
                      Point group of crystal =     1: C1, 1, 1
                      Space group of crystal =     1: P1, P 1
 
 
                         Centre of mass is constrained
             Set iprint > 1 for details of linear ionic constraints
 
                         Number of cell constraints= 0
                         Cell constraints are:  1 2 3 4 5 6
 
                         External pressure/stress (GPa)
                          0.00000   0.00000   0.00000
                                    0.00000   0.00000
                                              0.00000
  
+---------------- MEMORY AND SCRATCH DISK ESTIMATES PER PROCESS --------------+
|                                                     Memory          Disk    |
| Baseline code, static data and system overhead      322.0 MB         0.0 MB |
| BLAS internal memory storage                          0.0 MB         0.0 MB |
| Model and support data                             1319.7 MB         0.0 MB |
| Electronic energy minimisation requirements         380.7 MB         0.0 MB |
| Force calculation requirements                       24.1 MB         0.0 MB |
| Stress calculation requirements                      28.3 MB         0.0 MB |
|                                               ----------------------------- |
| Approx. total storage required per process         2022.5 MB         0.0 MB |
|                                                                             |
| Requirements will fluctuate during execution and may exceed these estimates |
+-----------------------------------------------------------------------------+
Calculating finite basis set correction with  3 cut-off energies.
Calculating total energy with cut-off of  806.342eV.
------------------------------------------------------------------------ <-- SCF
SCF loop      Energy           Fermi           Energy gain       Timer   <-- SCF
                               energy          per atom          (sec)   <-- SCF
------------------------------------------------------------------------ <-- SCF
Initial  -5.43833549E+004  0.00000000E+000                        76.39  <-- SCF
      1  -6.30208507E+004  7.63083962E+000   9.81533607E+001     216.15  <-- SCF
      2  -6.55946199E+004  7.04379854E+000   2.92473773E+001     310.05  <-- SCF
      3  -6.56723181E+004  6.72246514E+000   8.82933958E-001     415.39  <-- SCF
      4  -6.56685388E+004  7.73986098E+000  -4.29461548E-002     546.50  <-- SCF
      5  -6.55601980E+004  7.24985661E+000  -1.23114581E+000     676.84  <-- SCF
      6  -6.55617693E+004  7.12695790E+000   1.78557834E-002     834.51  <-- SCF
      7  -6.55615158E+004  7.21435991E+000  -2.88072927E-003     969.04  <-- SCF
      8  -6.55615726E+004  7.21305139E+000   6.45874974E-004    1139.03  <-- SCF
      9  -6.55615915E+004  7.20859685E+000   2.14685526E-004    1287.88  <-- SCF
     10  -6.55615929E+004  7.20403903E+000   1.58678248E-005    1431.80  <-- SCF
     11  -6.55615919E+004  7.20505166E+000  -1.16403706E-005    1574.40  <-- SCF
     12  -6.55615921E+004  7.20415614E+000   2.45404593E-006    1729.22  <-- SCF
     13  -6.55615921E+004  7.20310095E+000   1.55045405E-007    1864.96  <-- SCF
     14  -6.55615921E+004  7.20260879E+000  -4.92112903E-007    1998.28  <-- SCF
     15  -6.55615921E+004  7.20191099E+000  -1.11666575E-007    2145.85  <-- SCF
     16  -6.55615921E+004  7.20162484E+000   3.19243015E-009    2271.94  <-- SCF
     17  -6.55615921E+004  7.20154511E+000  -1.03255141E-009    2391.85  <-- SCF
     18  -6.55615921E+004  7.20147133E+000   6.68774954E-010    2491.60  <-- SCF
     19  -6.55615921E+004  7.20142328E+000   3.27356622E-010    2586.38  <-- SCF
------------------------------------------------------------------------ <-- SCF
 
Final energy, E             =  -65561.59205289     eV
Final free energy (E-TS)    =  -65561.59205289     eV
(energies not corrected for finite basis set)
 
NB est. 0K energy (E-0.5TS)      =  -65561.59205289     eV
 
Calculating total energy with cut-off of  811.342eV.
------------------------------------------------------------------------ <-- SCF
SCF loop      Energy           Fermi           Energy gain       Timer   <-- SCF
                               energy          per atom          (sec)   <-- SCF
------------------------------------------------------------------------ <-- SCF
Initial  -6.55615921E+004  0.00000000E+000                      2621.80  <-- SCF
      1  -6.55615945E+004  7.20142418E+000   2.80273403E-005    2733.10  <-- SCF
      2  -6.55615945E+004  7.20142418E+000   2.00098141E-010    2822.12  <-- SCF
      3  -6.55615945E+004  7.20141556E+000   1.65310875E-008    2910.25  <-- SCF
      4  -6.55615945E+004  7.20142572E+000   5.10018242E-010    2999.34  <-- SCF
      5  -6.55615945E+004  7.20142263E+000  -1.28102183E-010    3086.75  <-- SCF
------------------------------------------------------------------------ <-- SCF
 
Final energy, E             =  -65561.59452079     eV
Final free energy (E-TS)    =  -65561.59452079     eV
(energies not corrected for finite basis set)
 
NB est. 0K energy (E-0.5TS)      =  -65561.59452079     eV
 
Calculating total energy with cut-off of  816.342eV.
------------------------------------------------------------------------ <-- SCF
SCF loop      Energy           Fermi           Energy gain       Timer   <-- SCF
                               energy          per atom          (sec)   <-- SCF
------------------------------------------------------------------------ <-- SCF
Initial  -6.55615945E+004  0.00000000E+000                      3122.24  <-- SCF
      1  -6.55615974E+004  7.20142073E+000   3.29375764E-005    3234.73  <-- SCF
      2  -6.55615974E+004  7.20142073E+000   2.01785546E-010    3321.15  <-- SCF
      3  -6.55615974E+004  7.20141867E+000   2.03285931E-008    3410.91  <-- SCF
      4  -6.55615974E+004  7.20142060E+000   6.59212991E-010    3499.19  <-- SCF
      5  -6.55615974E+004  7.20141983E+000  -3.59979790E-011    3587.40  <-- SCF
------------------------------------------------------------------------ <-- SCF
 
Final energy, E             =  -65561.59742116     eV
Final free energy (E-TS)    =  -65561.59742116     eV
(energies not corrected for finite basis set)
 
NB est. 0K energy (E-0.5TS)      =  -65561.59742116     eV
 
 For future reference: finite basis dEtot/dlog(Ecut) =      -0.437336eV
 Total energy corrected for finite basis set =  -65561.597416 eV
 
  =====================================================================
  +       Calculation of Nuclear Magnetic Resonance Parameters        +
  + ================================================================= +
 
  Starting Calculation of Electric Field Gradient Tensors         |<-- EFG
  +---------------- MEMORY AND SCRATCH DISK ESTIMATES PER PROCESS --------------+
  |                                                     Memory          Disk    |
  | Model and support data                             1317.5 MB         0.0 MB |
  | NMR EFG calculation requirements                    366.4 MB         0.0 MB |
  |                                               ----------------------------- |
  | Approx. total storage required per process         1683.9 MB         0.0 MB |
  |                                                                             |
  | Requirements will fluctuate during execution and may exceed these estimates |
  +-----------------------------------------------------------------------------+
  Total Time for EFG Tensors                     388.98 sec       |<-- EFG
 
  Starting Calculation of Chemical Shielding Tensors              |<-- NMR
  +---------------- MEMORY AND SCRATCH DISK ESTIMATES PER PROCESS --------------+
  |                                                     Memory          Disk    |
  | Model and support data                             1317.5 MB         0.0 MB |
  | NMR chemical shift calculation requirements         562.7 MB         0.0 MB |
  |                                               ----------------------------- |
  | Approx. total storage required per process         1880.1 MB         0.0 MB |
  |                                                                             |
  | Requirements will fluctuate during execution and may exceed these estimates |
  +-----------------------------------------------------------------------------+
  Starting k-point:   1 of   1                                    |<-- NMR
  Total Time for step 1 of 6:                   3319.81 sec       |<-- NMR
  Total Time for step 2 of 6:                   3322.49 sec       |<-- NMR
  Total Time for step 3 of 6:                   3309.43 sec       |<-- NMR
  Total Time for step 4 of 6:                   3316.72 sec       |<-- NMR
  Total Time for step 5 of 6:                   3323.04 sec       |<-- NMR
  Total Time for step 6 of 6:                   3319.55 sec       |<-- NMR
  Total Time for Chemical Shielding Tensors    29249.82 sec       |<-- NMR
 
  ========================================================================
  |           Chemical Shielding and Electric Field Gradient Tensors     |
  |----------------------------------------------------------------------|
  |     Nucleus                Shielding tensor             EFG Tensor   |
  |  Species       Ion    Iso(ppm)   Aniso(ppm)  Asym    Cq(MHz)    Eta  |
  |    O           1     -316.23      -9.27      0.02  -3.808E-02   0.12 |
  |    O           2     -316.25      -7.60      0.36  -3.438E-02   0.70 |
  |    O           3     -316.44      -9.94      0.50   3.095E-02   0.19 |
  |    O           4     -316.54       6.57      0.70  -2.694E-02   0.93 |
  |    O           5     -318.74      -8.81      0.89   5.651E-02   0.95 |
  |    O           6     -318.23       8.99      0.59   6.234E-02   0.72 |
  |    O           7     -318.47      -6.98      0.61   4.439E-02   0.36 |
  |    O           8     -319.04      -1.92      0.76  -4.457E-02   0.62 |
  |    O           9     -161.70     149.94      0.77   1.084E+00   0.76 |
  |    O          10      -18.61      39.38      0.85   3.907E+00   0.82 |
  |    O          11     -160.08     143.36      0.84   1.093E+00   0.72 |
  |    O          12      -90.64      86.12      0.14  -3.189E+00   0.14 |
  |    O          13      -83.37      86.11      0.24  -3.161E+00   0.10 |
  |    O          14     -164.97     153.75      0.75   1.006E+00   0.93 |
  |    O          15      -83.59      87.13      0.25  -3.156E+00   0.09 |
  |    O          16      -18.91      37.49      0.83   3.923E+00   0.82 |
  |    O          17      -18.88      40.39      0.36   3.962E+00   0.78 |
  |    O          18     -160.70     154.27      0.81   1.106E+00   0.77 |
  |    O          19      -90.30      94.09      0.26  -3.128E+00   0.11 |
  |    O          20     -161.07     140.69      0.79   1.079E+00   0.70 |
  |    O          21     -164.01     156.11      0.79   1.050E+00   0.89 |
  |    O          22      -87.66      96.64      0.26  -3.196E+00   0.10 |
  |    O          23      -89.02      78.79      0.09  -3.217E+00   0.11 |
  |    O          24      -88.31      82.75      0.06  -3.172E+00   0.10 |
  |    O          25      -87.76      86.92      0.12  -3.117E+00   0.08 |
  |    O          26      -87.59      76.14      0.06  -3.212E+00   0.10 |
  |    O          27      -88.61      88.66      0.14  -3.270E+00   0.13 |
  |    O          28     -164.91     158.35      0.85   1.070E+00   0.87 |
  |    O          29      -90.37      95.78      0.15  -3.234E+00   0.11 |
  |    O          30     -164.20     157.03      0.82   1.083E+00   0.87 |
  |    O          31       -6.50      68.59      0.70   3.820E+00   0.87 |
  |    O          32      -85.72      86.56      0.17  -3.129E+00   0.08 |
  |    O          33     -165.07     159.03      0.81   1.069E+00   0.88 |
  |    O          34       -6.10      67.70      0.67   3.836E+00   0.87 |
  |    O          35      -88.18      94.67      0.20  -3.200E+00   0.11 |
  |    O          36      -88.85      85.45      0.06  -3.150E+00   0.09 |
  |    O          37      -90.44      76.08      0.10  -3.225E+00   0.10 |
  |    O          38     -167.08     160.48      0.84   1.038E+00   0.97 |
  |    O          39      -19.11      37.30      0.77   3.924E+00   0.82 |
  |    O          40     -165.16     151.35      0.77   1.004E+00   0.92 |
  |    O          41      -21.19      40.40      0.29   3.958E+00   0.79 |
  |    O          42     -165.33     154.77      0.81   1.003E+00   0.95 |
  |    O          43      -82.00      80.93      0.28  -3.132E+00   0.08 |
  |    O          44     -161.44     152.59      0.77   1.089E+00   0.77 |
  |    O          45      -83.19      87.09      0.22  -3.183E+00   0.10 |
  |    O          46     -160.75     142.48      0.78   1.080E+00   0.71 |
  |    O          47      -20.91      39.04      0.80   3.906E+00   0.83 |
  |    O          48     -166.81     157.73      0.80  -1.015E+00   0.97 |
  |    O          49      -89.36      81.00      0.04  -3.202E+00   0.10 |
  |    O          50     -164.22     156.60      0.81   1.047E+00   0.90 |
  |    O          51      -88.92      85.56      0.04  -3.160E+00   0.08 |
  |    O          52     -166.02     162.12      0.79   1.062E+00   0.95 |
  |    O          53     -163.78     156.21      0.81   1.087E+00   0.85 |
  |    O          54      -85.49      85.31      0.10  -3.140E+00   0.09 |
  |    O          55     -161.39     151.62      0.82   1.075E+00   0.78 |
  |    O          56     -161.56     151.46      0.82   1.072E+00   0.78 |
  |    Zr          1     1634.16    -127.86      0.13  -3.898E+01   0.08 |
  |    Zr          2     1627.91    -127.58      0.17  -3.786E+01   0.07 |
  |    Zr          3     1629.35    -123.85      0.11  -3.969E+01   0.08 |
  |    Zr          4     1623.49    -121.25      0.14  -3.886E+01   0.06 |
  |    Zr          5     1633.40    -129.89      0.17  -3.898E+01   0.13 |
  |    Zr          6     1623.97    -122.46      0.13  -3.901E+01   0.09 |
  |    Zr          7     1627.71    -125.29      0.12  -3.781E+01   0.13 |
  |    Zr          8     1633.50    -127.03      0.11  -3.872E+01   0.06 |
  |    Zr          9     1633.36    -127.71      0.17  -3.870E+01   0.13 |
  |    Zr         10     1628.85    -124.41      0.16  -3.997E+01   0.13 |
  |    Sn          1     3246.02     -59.77      0.03   1.227E+02   0.06 |
  |    Sn          2     3245.89     -60.76      0.12   1.225E+02   0.12 |
  |    Sn          3     3239.76     -49.46      0.15   1.230E+02   0.08 |
  |    Sn          4     3252.55     -48.46      0.03   1.294E+02   0.10 |
  |    Sn          5     3253.02     -51.47      0.24   1.301E+02   0.20 |
  |    Sn          6     3239.89     -48.69      0.21   1.234E+02   0.07 |
  |    La          1     4708.91     746.03      0.04  -8.326E+01   0.10 |
  |    La          2     4704.21     754.74      0.05  -8.199E+01   0.10 |
  |    La          3     4609.74     526.46      0.08  -7.693E+01   0.11 |
  |    La          4     4797.02     967.05      0.01  -8.693E+01   0.02 |
  |    La          5     4656.37     628.61      0.00  -7.874E+01   0.05 |
  |    La          6     4749.55     877.29      0.05  -8.322E+01   0.06 |
  |    La          7     4708.14     748.75      0.04  -8.367E+01   0.12 |
  |    La          8     4709.06     748.10      0.03  -8.320E+01   0.10 |
  |    La          9     4701.78     771.79      0.05  -8.132E+01   0.06 |
  |    La         10     4703.60     756.15      0.05  -8.221E+01   0.12 |
  |    La         11     4656.35     625.35      0.01  -7.868E+01   0.04 |
  |    La         12     4658.08     659.72      0.10  -8.006E+01   0.16 |
  |    La         13     4658.56     633.83      0.01  -7.946E+01   0.05 |
  |    La         14     4664.56     655.52      0.08  -8.157E+01   0.15 |
  |    La         15     4660.74     669.91      0.10  -8.099E+01   0.16 |
  |    La         16     4752.25     873.18      0.03  -8.510E+01   0.03 |
  ========================================================================
 
 *********************** Forces ***********************
 *                                                    *
 *            Cartesian components (eV/A)             *
 * -------------------------------------------------- *
 *                   x            y            z      *
 *                                                    *
 * O         1      0.00599     -0.00690     -0.00301 *
 * O         2      0.00476      0.00175     -0.00215 *
 * O         3      0.00265     -0.00209     -0.00724 *
 * O         4      0.00258     -0.00457      0.00196 *
 * O         5     -0.01712      0.00404     -0.00434 *
 * O         6     -0.01003     -0.00321      0.00395 *
 * O         7     -0.00162      0.00042      0.00388 *
 * O         8     -0.00477     -0.00761     -0.00840 *
 * O         9      0.00612      0.00061      0.00427 *
 * O        10     -0.00577     -0.00558      0.00112 *
 * O        11     -0.01414     -0.00607      0.00073 *
 * O        12      0.00008     -0.01580     -0.00856 *
 * O        13     -0.02264     -0.00600     -0.01344 *
 * O        14      0.00299     -0.00142      0.00724 *
 * O        15     -0.01588      0.00249      0.01799 *
 * O        16      0.00309      0.00263     -0.00219 *
 * O        17     -0.00422     -0.00808      0.00289 *
 * O        18     -0.00588      0.00187     -0.01096 *
 * O        19     -0.01202      0.01066      0.00136 *
 * O        20      0.00452      0.00661      0.00400 *
 * O        21     -0.00740      0.01159     -0.01270 *
 * O        22      0.00555     -0.01084      0.02307 *
 * O        23     -0.01133      0.00090     -0.01578 *
 * O        24     -0.01759     -0.00721      0.01563 *
 * O        25     -0.01076     -0.01995      0.01132 *
 * O        26      0.00309      0.01445      0.01277 *
 * O        27     -0.01126     -0.01506     -0.00906 *
 * O        28      0.01448      0.01156      0.00568 *
 * O        29      0.01764      0.03048     -0.00453 *
 * O        30      0.00642      0.00567      0.01589 *
 * O        31     -0.00467      0.00039     -0.00531 *
 * O        32      0.01364      0.02473      0.00326 *
 * O        33      0.00820     -0.01135     -0.00368 *
 * O        34     -0.00420     -0.01056     -0.00560 *
 * O        35      0.01805      0.00221     -0.01357 *
 * O        36      0.02574      0.00667      0.03106 *
 * O        37      0.01693     -0.01983     -0.00101 *
 * O        38      0.01148     -0.00268     -0.01641 *
 * O        39     -0.01027     -0.00697      0.00510 *
 * O        40     -0.00457      0.00668      0.00014 *
 * O        41      0.00231      0.00140     -0.00374 *
 * O        42     -0.00950      0.00326     -0.00346 *
 * O        43     -0.01408     -0.00910     -0.00271 *
 * O        44      0.00000      0.01012     -0.00138 *
 * O        45      0.00047      0.01098      0.01444 *
 * O        46     -0.00268      0.00640     -0.00249 *
 * O        47     -0.00733      0.00539     -0.00607 *
 * O        48     -0.00764     -0.00549      0.01122 *
 * O        49      0.02592      0.00118     -0.01982 *
 * O        50      0.01090     -0.01472     -0.00496 *
 * O        51     -0.00550      0.01148     -0.02106 *
 * O        52     -0.01019      0.01318      0.00244 *
 * O        53      0.00376     -0.01460      0.01705 *
 * O        54     -0.01321     -0.01315      0.00391 *
 * O        55      0.00133     -0.00990     -0.00013 *
 * O        56      0.00196      0.00614     -0.00342 *
 * Zr        1     -0.01830     -0.00122      0.03195 *
 * Zr        2     -0.00233      0.01036     -0.02232 *
 * Zr        3      0.00900      0.01559     -0.00205 *
 * Zr        4      0.00593     -0.01094      0.00392 *
 * Zr        5      0.00960     -0.00190     -0.00611 *
 * Zr        6      0.01956      0.02785     -0.00311 *
 * Zr        7      0.00151      0.01009     -0.01146 *
 * Zr        8      0.00526     -0.00061      0.02602 *
 * Zr        9     -0.00966     -0.01772      0.00232 *
 * Zr       10     -0.00912     -0.00718      0.00312 *
 * Sn        1     -0.00392      0.00515      0.00445 *
 * Sn        2      0.00631     -0.01118      0.00619 *
 * Sn        3      0.00637      0.01426     -0.01230 *
 * Sn        4      0.02929      0.01327     -0.00312 *
 * Sn        5      0.00104     -0.00070     -0.01070 *
 * Sn        6     -0.00824     -0.01500     -0.00401 *
 * La        1      0.00096      0.00793     -0.01193 *
 * La        2      0.01741     -0.01090      0.00918 *
 * La        3     -0.00280      0.00082     -0.00048 *
 * La        4      0.00546      0.00739     -0.00374 *
 * La        5     -0.00031      0.01226      0.01001 *
 * La        6      0.01475      0.00469     -0.01641 *
 * La        7     -0.01745     -0.01606     -0.00540 *
 * La        8      0.00309     -0.01755      0.00927 *
 * La        9     -0.00764     -0.00482     -0.00418 *
 * La       10     -0.00333      0.01049      0.01521 *
 * La       11     -0.00492     -0.00370     -0.00628 *
 * La       12     -0.00521     -0.00381     -0.00390 *
 * La       13     -0.01209     -0.00161      0.00457 *
 * La       14      0.00782     -0.00133      0.00033 *
 * La       15      0.01006      0.00224      0.00351 *
 * La       16     -0.00252      0.00662     -0.00773 *
 *                                                    *
 ******************************************************
 
 ***************** Stress Tensor *****************
 *                                               *
 *          Cartesian components (GPa)           *
 * --------------------------------------------- *
 *             x             y             z     *
 *                                               *
 *  x      0.041455     -0.003340      0.002723  *
 *  y     -0.003340      0.019555     -0.056896  *
 *  z      0.002723     -0.056896      0.047401  *
 *                                               *
 *  Pressure:   -0.0361                          *
 *                                               *
 *************************************************
 
 Pseudo atomic calculation performed for O 2s2 2p4
 
 Converged in 39 iterations to a total energy of -432.6554 eV
 
 
 Pseudo atomic calculation performed for Zr 4s2 4p6 4d2 5s2
 
 Converged in 38 iterations to a total energy of -1285.4931 eV
 
 
 Pseudo atomic calculation performed for Sn 4d10 5s2 5p2
 
 Converged in 48 iterations to a total energy of -2044.5414 eV
 
 
 Pseudo atomic calculation performed for La 5s2 5p6 5d1 6s2
 
 Converged in 34 iterations to a total energy of -968.0372 eV
 
Charge spilling parameter for spin component 1 = 0.23%
 
     Atomic Populations (Mulliken)
     -----------------------------
Species   Ion     s      p      d      f     Total  Charge (e)
==============================================================
  O        1     1.87   5.00   0.00   0.00   6.87    -0.87
  O        2     1.87   5.00   0.00   0.00   6.87    -0.87
  O        3     1.87   5.00   0.00   0.00   6.87    -0.87
  O        4     1.87   5.00   0.00   0.00   6.87    -0.87
  O        5     1.87   5.00   0.00   0.00   6.87    -0.87
  O        6     1.87   5.00   0.00   0.00   6.87    -0.87
  O        7     1.87   5.00   0.00   0.00   6.87    -0.87
  O        8     1.87   5.00   0.00   0.00   6.87    -0.87
  O        9     1.86   4.94   0.00   0.00   6.80    -0.80
  O       10     1.88   5.02   0.00   0.00   6.91    -0.91
  O       11     1.86   4.95   0.00   0.00   6.80    -0.80
  O       12     1.87   4.98   0.00   0.00   6.85    -0.85
  O       13     1.87   4.99   0.00   0.00   6.85    -0.85
  O       14     1.86   4.94   0.00   0.00   6.80    -0.80
  O       15     1.87   4.99   0.00   0.00   6.85    -0.85
  O       16     1.88   5.02   0.00   0.00   6.91    -0.91
  O       17     1.88   5.02   0.00   0.00   6.91    -0.91
  O       18     1.86   4.95   0.00   0.00   6.80    -0.80
  O       19     1.87   4.98   0.00   0.00   6.85    -0.85
  O       20     1.86   4.95   0.00   0.00   6.80    -0.80
  O       21     1.86   4.94   0.00   0.00   6.80    -0.80
  O       22     1.87   4.99   0.00   0.00   6.85    -0.85
  O       23     1.87   4.99   0.00   0.00   6.86    -0.86
  O       24     1.87   4.99   0.00   0.00   6.85    -0.85
  O       25     1.87   4.99   0.00   0.00   6.85    -0.85
  O       26     1.87   4.99   0.00   0.00   6.85    -0.85
  O       27     1.87   4.99   0.00   0.00   6.86    -0.86
  O       28     1.86   4.95   0.00   0.00   6.80    -0.80
  O       29     1.87   4.99   0.00   0.00   6.85    -0.85
  O       30     1.86   4.95   0.00   0.00   6.80    -0.80
  O       31     1.88   5.02   0.00   0.00   6.91    -0.91
  O       32     1.87   4.99   0.00   0.00   6.85    -0.85
  O       33     1.86   4.95   0.00   0.00   6.80    -0.80
  O       34     1.88   5.02   0.00   0.00   6.90    -0.90
  O       35     1.87   4.99   0.00   0.00   6.85    -0.85
  O       36     1.87   4.99   0.00   0.00   6.85    -0.85
  O       37     1.87   4.99   0.00   0.00   6.86    -0.86
  O       38     1.85   4.95   0.00   0.00   6.80    -0.80
  O       39     1.88   5.02   0.00   0.00   6.91    -0.91
  O       40     1.86   4.94   0.00   0.00   6.80    -0.80
  O       41     1.88   5.02   0.00   0.00   6.91    -0.91
  O       42     1.86   4.94   0.00   0.00   6.80    -0.80
  O       43     1.87   4.99   0.00   0.00   6.85    -0.85
  O       44     1.86   4.94   0.00   0.00   6.80    -0.80
  O       45     1.87   4.99   0.00   0.00   6.85    -0.85
  O       46     1.86   4.95   0.00   0.00   6.80    -0.80
  O       47     1.88   5.02   0.00   0.00   6.91    -0.91
  O       48     1.86   4.94   0.00   0.00   6.80    -0.80
  O       49     1.87   4.99   0.00   0.00   6.86    -0.86
  O       50     1.86   4.94   0.00   0.00   6.80    -0.80
  O       51     1.87   4.99   0.00   0.00   6.86    -0.86
  O       52     1.85   4.94   0.00   0.00   6.80    -0.80
  O       53     1.86   4.95   0.00   0.00   6.80    -0.80
  O       54     1.87   4.99   0.00   0.00   6.85    -0.85
  O       55     1.86   4.95   0.00   0.00   6.80    -0.80
  O       56     1.86   4.95   0.00   0.00   6.80    -0.80
  Zr       1     2.37   6.48   1.93   0.00  10.78     1.22
  Zr       2     2.37   6.49   1.92   0.00  10.78     1.22
  Zr       3     2.36   6.47   1.93   0.00  10.76     1.24
  Zr       4     2.37   6.48   1.93   0.00  10.77     1.23
  Zr       5     2.37   6.48   1.93   0.00  10.77     1.23
  Zr       6     2.37   6.48   1.92   0.00  10.78     1.22
  Zr       7     2.37   6.49   1.92   0.00  10.78     1.22
  Zr       8     2.37   6.48   1.93   0.00  10.77     1.23
  Zr       9     2.37   6.48   1.93   0.00  10.77     1.23
  Zr      10     2.37   6.47   1.93   0.00  10.77     1.23
  Sn       1     1.05   1.32  10.00   0.00  12.37     1.63
  Sn       2     1.05   1.32  10.00   0.00  12.36     1.64
  Sn       3     1.05   1.32  10.00   0.00  12.36     1.64
  Sn       4     1.05   1.32  10.00   0.00  12.37     1.63
  Sn       5     1.05   1.32  10.00   0.00  12.37     1.63
  Sn       6     1.05   1.32  10.00   0.00  12.36     1.64
  La       1     2.06   6.16   1.19   0.00   9.42     1.58
  La       2     2.07   6.16   1.19   0.00   9.42     1.58
  La       3     2.11   6.19   1.19   0.00   9.49     1.51
  La       4     2.00   6.13   1.20   0.00   9.33     1.67
  La       5     2.10   6.18   1.19   0.00   9.47     1.53
  La       6     2.03   6.14   1.19   0.00   9.36     1.64
  La       7     2.07   6.16   1.19   0.00   9.42     1.58
  La       8     2.07   6.16   1.19   0.00   9.42     1.58
  La       9     2.05   6.16   1.19   0.00   9.40     1.60
  La      10     2.07   6.16   1.19   0.00   9.42     1.58
  La      11     2.09   6.18   1.19   0.00   9.46     1.54
  La      12     2.09   6.17   1.19   0.00   9.45     1.55
  La      13     2.08   6.18   1.19   0.00   9.45     1.55
  La      14     2.08   6.18   1.19   0.00   9.45     1.55
  La      15     2.07   6.17   1.19   0.00   9.44     1.56
  La      16     2.02   6.15   1.19   0.00   9.37     1.63
==============================================================
 
            Bond              Population      Length (A)
============================================================
         O 27 -- Sn 5              0.35        2.09763
         O 29 -- Sn 4              0.35        2.10028
         O 35 -- Sn 5              0.35        2.10239
         O 22 -- Sn 4              0.35        2.10262
         O 17 -- Sn 3              0.34        2.10379
         O 45 -- Sn 5              0.35        2.10465
         O 41 -- Sn 6              0.34        2.10495
         O 17 -- Sn 6              0.34        2.10562
         O 23 -- Sn 2              0.35        2.10662
         O 39 -- Sn 3              0.34        2.10669
         O 16 -- Sn 2              0.34        2.10682
         O 13 -- Sn 4              0.35        2.10723
         O 15 -- Sn 5              0.35        2.10732
         O 43 -- Sn 4              0.35        2.10752
         O 16 -- Sn 6              0.34        2.10818
         O 41 -- Sn 1              0.33        2.10833
         O 52 -- Zr 10             0.43        2.10837
         O 39 -- Sn 1              0.34        2.10847
         O 12 -- Sn 4              0.34        2.10862
         O 49 -- Sn 1              0.35        2.10877
         O 10 -- Sn 3              0.34        2.10886
         O 10 -- Sn 2              0.34        2.10886
         O 24 -- Sn 3              0.34        2.10964
         O 47 -- Sn 1              0.34        2.10997
         O 29 -- Zr 4              0.45        2.10998
         O 26 -- Sn 6              0.34        2.11018
         O 37 -- Sn 1              0.35        2.11056
         O 38 -- Zr 2              0.42        2.11088
         O 54 -- Sn 3              0.34        2.11160
         O 47 -- Sn 2              0.33        2.11173
         O 51 -- Sn 2              0.34        2.11185
         O 36 -- Sn 6              0.34        2.11208
         O 28 -- Zr 7              0.41        2.11234
         O 28 -- Zr 4              0.41        2.11311
         O 33 -- Zr 8              0.42        2.11311
         O 19 -- Sn 5              0.34        2.11353
         O 32 -- Sn 6              0.34        2.11357
         O 30 -- Zr 9              0.42        2.11397
         O 53 -- Zr 3              0.42        2.11407
         O 52 -- Zr 1              0.43        2.11492
         O 38 -- Zr 6              0.41        2.11496
         O 33 -- Zr 3              0.42        2.11498
         O 21 -- Zr 5              0.42        2.11498
         O 25 -- Sn 3              0.34        2.11501
         O 53 -- Zr 5              0.42        2.11507
         O 18 -- Zr 9              0.42        2.11556
         O 50 -- Zr 1              0.42        2.11558
         O 22 -- Zr 7              0.45        2.11559
         O 30 -- Zr 10             0.42        2.11568
         O 18 -- Zr 5              0.42        2.11656
         O 35 -- Zr 2              0.45        2.11680
         O 34 -- Sn 4              0.33        2.11723
         O 27 -- Zr 6              0.44        2.11729
         O 44 -- Zr 3              0.43        2.11771
         O 48 -- Zr 8              0.43        2.11784
         O 9  -- Zr 6              0.44        2.11806
         O 50 -- Zr 9              0.43        2.11823
         O 48 -- Zr 1              0.43        2.11824
         O 44 -- Zr 10             0.43        2.11828
         O 14 -- Zr 4              0.44        2.11851
         O 31 -- Sn 5              0.33        2.11861
         O 42 -- Zr 2              0.43        2.11874
         O 34 -- Sn 1              0.33        2.11875
         O 40 -- Zr 6              0.44        2.11896
         O 21 -- Zr 8              0.43        2.11914
         O 36 -- Zr 3              0.46        2.11916
         O 31 -- Sn 2              0.33        2.11938
         O 55 -- Zr 2              0.43        2.11939
         O 56 -- Zr 1              0.42        2.11997
         O 19 -- Zr 7              0.46        2.12017
         O 55 -- Zr 5              0.42        2.12049
         O 56 -- Zr 7              0.43        2.12055
         O 15 -- Zr 8              0.45        2.12060
         O 45 -- Zr 1              0.45        2.12078
         O 11 -- Zr 8              0.42        2.12104
         O 46 -- Zr 3              0.43        2.12135
         O 12 -- Zr 5              0.46        2.12135
         O 13 -- Zr 9              0.45        2.12139
         O 20 -- Zr 6              0.43        2.12156
         O 11 -- Zr 7              0.42        2.12186
         O 42 -- Zr 9              0.43        2.12213
         O 46 -- Zr 4              0.43        2.12311
         O 24 -- Zr 10             0.46        2.12323
         O 9  -- Zr 10             0.43        2.12330
         O 49 -- Zr 4              0.45        2.12421
         O 14 -- Zr 10             0.44        2.12479
         O 32 -- Zr 8              0.45        2.12583
         O 25 -- Zr 9              0.45        2.12603
         O 23 -- Zr 6              0.45        2.12635
         O 40 -- Zr 3              0.43        2.12647
         O 51 -- Zr 2              0.45        2.12695
         O 20 -- Zr 4              0.43        2.12704
         O 43 -- Zr 2              0.45        2.12704
         O 54 -- Zr 1              0.45        2.12735
         O 26 -- Zr 5              0.46        2.12885
         O 37 -- Zr 7              0.45        2.12908
         O 8  -- La 4              0.18        2.35847
         O 7  -- La 16             0.16        2.35907
         O 4  -- La 4              0.19        2.35941
         O 1  -- La 15             0.17        2.35971
         O 4  -- La 16             0.20        2.35991
         O 7  -- La 7              0.18        2.36014
         O 4  -- La 6              0.18        2.36017
         O 1  -- La 1              0.18        2.36059
         O 4  -- La 9              0.19        2.36063
         O 2  -- La 2              0.17        2.36071
         O 3  -- La 8              0.17        2.36073
         O 2  -- La 7              0.18        2.36077
         O 8  -- La 10             0.18        2.36083
         O 3  -- La 14             0.17        2.36092
         O 5  -- La 6              0.16        2.36106
         O 5  -- La 15             0.18        2.36111
         O 1  -- La 10             0.17        2.36128
         O 2  -- La 12             0.17        2.36133
         O 6  -- La 9              0.15        2.36140
         O 6  -- La 1              0.18        2.36151
         O 2  -- La 13             0.17        2.36174
         O 5  -- La 8              0.19        2.36177
         O 6  -- La 14             0.18        2.36187
         O 8  -- La 13             0.18        2.36206
         O 5  -- La 2              0.18        2.36209
         O 6  -- La 12             0.17        2.36240
         O 1  -- La 11             0.17        2.36285
         O 3  -- La 5              0.16        2.36307
         O 3  -- La 3              0.16        2.36332
         O 7  -- La 11             0.17        2.36342
         O 8  -- La 5              0.18        2.36343
         O 7  -- La 3              0.17        2.36383
         O 38 -- La 10             0.13        2.66151
         O 50 -- La 5              0.14        2.66192
         O 33 -- La 13             0.13        2.66256
         O 53 -- La 9              0.12        2.66290
         O 40 -- La 9              0.13        2.66337
         O 48 -- La 6              0.11        2.66357
         O 21 -- La 6              0.11        2.66363
         O 55 -- La 10             0.13        2.66384
         O 30 -- La 11             0.14        2.66439
         O 56 -- La 2              0.13        2.66483
         O 20 -- La 12             0.14        2.66496
         O 42 -- La 16             0.13        2.66570
         O 46 -- La 15             0.13        2.66583
         O 28 -- La 16             0.12        2.66602
         O 11 -- La 14             0.14        2.66652
         O 18 -- La 5              0.13        2.66724
         O 28 -- La 7              0.13        2.66818
         O 14 -- La 6              0.12        2.66818
         O 52 -- La 2              0.13        2.66831
         O 52 -- La 6              0.11        2.66849
         O 39 -- La 3              0.23        2.66878
         O 56 -- La 7              0.14        2.66975
         O 38 -- La 4              0.11        2.67012
         O 42 -- La 4              0.11        2.67046
         O 55 -- La 1              0.14        2.67064
         O 47 -- La 11             0.24        2.67179
         O 48 -- La 4              0.12        2.67189
         O 9  -- La 11             0.13        2.67198
         O 9  -- La 10             0.13        2.67212
         O 10 -- La 13             0.23        2.67229
         O 11 -- La 8              0.13        2.67247
         O 35 -- La 3              0.18        2.67252
         O 21 -- La 8              0.14        2.67292
         O 34 -- La 3              0.24        2.67293
         O 44 -- La 13             0.13        2.67327
         O 18 -- La 8              0.14        2.67366
         O 16 -- La 5              0.23        2.67372
         O 41 -- La 12             0.23        2.67449
         O 14 -- La 16             0.13        2.67452
         O 31 -- La 5              0.24        2.67495
         O 31 -- La 13             0.24        2.67514
         O 44 -- La 2              0.13        2.67515
         O 17 -- La 15             0.22        2.67527
         O 30 -- La 16             0.12        2.67539
         O 43 -- La 3              0.19        2.67575
         O 53 -- La 1              0.14        2.67577
         O 16 -- La 14             0.23        2.67635
         O 23 -- La 11             0.18        2.67635
         O 49 -- La 12             0.18        2.67642
         O 50 -- La 4              0.11        2.67646
         O 29 -- La 15             0.18        2.67722
         O 20 -- La 7              0.14        2.67728
         O 37 -- La 2              0.18        2.67735
         O 54 -- La 3              0.19        2.67756
         O 34 -- La 11             0.25        2.67759
         O 10 -- La 7              0.23        2.67771
         O 33 -- La 4              0.11        2.67789
         O 17 -- La 10             0.22        2.67803
         O 22 -- La 9              0.16        2.67806
         O 40 -- La 4              0.12        2.67855
         O 47 -- La 1              0.24        2.67869
         O 41 -- La 2              0.23        2.67882
         O 27 -- La 12             0.18        2.67925
         O 19 -- La 9              0.18        2.67959
         O 46 -- La 1              0.14        2.68019
         O 15 -- La 13             0.18        2.68021
         O 26 -- La 5              0.19        2.68071
         O 27 -- La 9              0.16        2.68082
         O 13 -- La 11             0.18        2.68088
         O 12 -- La 9              0.18        2.68088
         O 25 -- La 15             0.18        2.68114
         O 39 -- La 8              0.23        2.68134
         O 51 -- La 1              0.19        2.68158
         O 51 -- La 14             0.19        2.68192
         O 36 -- La 15             0.18        2.68220
         O 24 -- La 13             0.18        2.68232
         O 22 -- La 14             0.19        2.68251
         O 32 -- La 12             0.19        2.68310
         O 29 -- La 6              0.15        2.68315
         O 45 -- La 5              0.18        2.68359
         O 13 -- La 15             0.18        2.68366
         O 37 -- La 8              0.19        2.68397
         O 45 -- La 3              0.18        2.68448
         O 15 -- La 12             0.18        2.68462
         O 12 -- La 6              0.17        2.68509
         O 32 -- La 14             0.19        2.68570
         O 49 -- La 1              0.19        2.68659
         O 36 -- La 2              0.18        2.68689
         O 26 -- La 10             0.19        2.68749
         O 19 -- La 16             0.18        2.68759
         O 35 -- La 16             0.17        2.68812
         O 23 -- La 7              0.19        2.68843
         O 25 -- La 8              0.19        2.68869
         O 24 -- La 10             0.18        2.68926
         O 43 -- La 14             0.19        2.69059
         O 54 -- La 7              0.19        2.69253
         O 19 -- O 27             -0.06        2.79544
         O 12 -- O 22             -0.06        2.79709
         O 23 -- O 47             -0.06        2.79763
         O 37 -- O 41             -0.06        2.79786
         O 39 -- O 54             -0.06        2.79791
         O 12 -- O 29             -0.06        2.79792
         O 17 -- O 25             -0.06        2.79804
         O 41 -- O 49             -0.06        2.79857
         O 10 -- O 31             -0.05        2.79876
         O 16 -- O 31             -0.05        2.79926
         O 34 -- O 39             -0.05        2.79941
         O 10 -- O 24             -0.06        2.79968
         O 32 -- O 41             -0.06        2.79968
         O 13 -- O 29             -0.06        2.80013
         O 16 -- O 26             -0.06        2.80020
         O 17 -- O 36             -0.06        2.80022
         O 16 -- O 51             -0.06        2.80039
         O 34 -- O 47             -0.05        2.80051
         O 17 -- O 26             -0.06        2.80063
         O 35 -- O 45             -0.06        2.80086
         O 17 -- O 24             -0.06        2.80144
         O 15 -- O 27             -0.06        2.80169
         O 36 -- O 41             -0.06        2.80224
         O 37 -- O 39             -0.06        2.80226
         O 10 -- O 23             -0.06        2.80256
         O 47 -- O 49             -0.06        2.80342
         O 34 -- O 43             -0.06        2.80673
         O 40 -- O 53             -0.04        2.80694
         O 21 -- O 48             -0.04        2.80699
         O 47 -- O 51             -0.06        2.80722
         O 48 -- O 52             -0.04        2.80734
         O 19 -- O 35             -0.06        2.80780
         O 31 -- O 45             -0.06        2.80926
         O 14 -- O 52             -0.04        2.80959
         O 15 -- O 31             -0.05        2.80969
         O 13 -- O 34             -0.05        2.81004
         O 16 -- O 32             -0.05        2.81016
         O 10 -- O 54             -0.05        2.81022
         O 38 -- O 55             -0.03        2.81025
         O 22 -- O 43             -0.06        2.81072
         O 25 -- O 39             -0.05        2.81073
         O 38 -- O 42             -0.03        2.81086
         O 30 -- O 42             -0.03        2.81103
         O 52 -- O 56             -0.03        2.81117
         O 18 -- O 50             -0.03        2.81173
         O 33 -- O 44             -0.03        2.81281
         O 9  -- O 30             -0.03        2.81286
         O 14 -- O 28             -0.03        2.81306
         O 9  -- O 38             -0.03        2.81325
         O 33 -- O 48             -0.03        2.81386
         O 48 -- O 50             -0.03        2.81434
         O 44 -- O 52             -0.03        2.81503
         O 38 -- O 40             -0.03        2.81534
         O 28 -- O 56             -0.03        2.81616
         O 12 -- O 53             -0.03        2.81700
         O 53 -- O 55             -0.03        2.81709
         O 27 -- O 40             -0.03        2.81709
         O 14 -- O 29             -0.03        2.81731
         O 29 -- O 46             -0.03        2.81806
         O 18 -- O 21             -0.03        2.81817
         O 42 -- O 50             -0.03        2.81829
         O 12 -- O 21             -0.03        2.81869
         O 20 -- O 27             -0.03        2.81875
         O 35 -- O 42             -0.03        2.81974
         O 15 -- O 33             -0.03        2.81993
         O 19 -- O 28             -0.03        2.82024
         O 14 -- O 30             -0.03        2.82053
         O 13 -- O 30             -0.03        2.82115
         O 33 -- O 40             -0.03        2.82116
         O 45 -- O 50             -0.03        2.82137
         O 20 -- O 28             -0.03        2.82204
         O 11 -- O 21             -0.03        2.82217
         O 11 -- O 22             -0.03        2.82262
         O 19 -- O 22             -0.03        2.82404
         O 37 -- O 56             -0.03        2.82495
         O 46 -- O 53             -0.03        2.82500
         O 20 -- O 49             -0.03        2.82508
         O 35 -- O 43             -0.03        2.82523
         O 18 -- O 26             -0.03        2.82699
         O 26 -- O 55             -0.03        2.82727
         O 36 -- O 46             -0.03        2.82753
         O 9  -- O 23             -0.03        2.82860
         O 11 -- O 37             -0.03        2.82894
         O 51 -- O 55             -0.03        2.82927
         O 11 -- O 32             -0.03        2.82928
         O 24 -- O 44             -0.03        2.82984
         O 9  -- O 24             -0.03        2.82990
         O 36 -- O 44             -0.03        2.83072
         O 18 -- O 25             -0.03        2.83123
         O 54 -- O 56             -0.03        2.83152
         O 20 -- O 23             -0.03        2.83253
         O 46 -- O 49             -0.03        2.83293
         O 45 -- O 54             -0.03        2.83650
         O 13 -- O 25             -0.03        2.83664
         O 15 -- O 32             -0.03        2.83725
         O 43 -- O 51             -0.03        2.83850
============================================================
 

Writing analysis data to 061.castep_bin

Writing model to 061.check
 
 A BibTeX formatted list of references used in this run has been written to 
 061.bib
 
Initialisation time =     54.98 s
Calculation time    =  33649.82 s
Finalisation time   =     30.72 s
Total time          =  33735.52 s
Peak Memory Use     = 2839780 kB
  
Overall parallel efficiency rating: Good (79%)                                  
  
Data was distributed by:-
G-vector (4-way); efficiency rating: Good (79%)                                 
k-point (14-way); efficiency rating: Excellent (99%)                            
