 +-------------------------------------------------+
 |                                                 |
 |      CCC   AA    SSS  TTTTT  EEEEE  PPPP        |
 |     C     A  A  S       T    E      P   P       |
 |     C     AAAA   SS     T    EEE    PPPP        |
 |     C     A  A     S    T    E      P           |
 |      CCC  A  A  SSS     T    EEEEE  P           |
 |                                                 |
 +-------------------------------------------------+
 |                                                 |
 | Welcome to Academic Release CASTEP version 16.1 |          
 | Ab Initio Total Energy Program                  |
 |                                                 |
 | Authors:                                        |
 | M. Segall, M. Probert, C. Pickard, P. Hasnip,   |
 | S. Clark, K. Refson, J. R. Yates, M. Payne      |
 |                                                 |
 | Contributors:                                   |
 | P. Lindan, P. Haynes, J. White, V. Milman,      |
 | N. Govind, M. Gibson, P. Tulip, V. Cocula,      |
 | B. Montanari, D. Quigley, M. Glover,            |
 | L. Bernasconi, A. Perlov, M. Plummer,           |
 | E. McNellis, J. Meyer, J. Gale, D. Jochym       |
 | J. Aarons, B. Walker, R. Gillen, D. Jones       |
 | T. Green, I. J. Bush, C. J. Armstrong,          |
 | E. J. Higgins, E. L. Brown, M. S. McFly         |
 |                                                 |
 | Copyright (c) 2000 - 2015                       |
 |                                                 |
 |     Distributed under the terms of an           |
 |     Agreement between the United Kingdom        |
 |     Car-Parrinello (UKCP) Consortium,           |
 |     Daresbury Laboratory and Accelrys, Inc.     |
 |                                                 |
 | Please cite                                     |
 |                                                 |
 |     "First principles methods using CASTEP"     |
 |                                                 |
 |         Zeitschrift fuer Kristallographie       |
 |           220(5-6) pp. 567-570 (2005)           |
 |                                                 |
 | S. J. Clark, M. D. Segall, C. J. Pickard,       |
 | P. J. Hasnip, M. J. Probert, K. Refson,         |
 | M. C. Payne                                     |
 |                                                 |
 |       in all publications arising from          |
 |              your use of CASTEP                 |
 |                                                 |
 +-------------------------------------------------+
 
 
 Compiled for linux_x86_64_cray-XT on Tue, 22 Mar 2022 15:42:52 +0000
 from code version b833c1ffcd7d+  Fri, 13 Jun 2014 17:24:31 +0100
 Compiler: Cray Fortran 11.0.4; Optimisation: intermediate
 MATHLIBS: LibSci (LAPACK version 3.6.1)
 FFT Lib : default
 Fundamental constants values: CODATA 2010
 
 Run started: Fri, 25 Mar 2022 16:42:23 +0000
 +-------------------------------------------------+
 |                                                 |
 |           N   N    M   M    RRRR                |
 |           NN  N    MM MM    R   R               |
 |           N N N    M M M    RRRR                |
 |           N  NN    M   M    R  R                |
 |           N   N    M   M    R   R               |
 |                                                 |
 +-------------------------------------------------+
 |                                                 |
 | Welcome to Materials Studio CASTEP-NMR          |
 |                                                 |
 | Authors:                                        |
 | J.R. Yates, C.J. Pickard, F. Mauri              |
 |                                                 |
 | Contributors:                                   |
 | T.F.G. Green, S.A. Joyce                        |
 |                                                 |
 | Copyright (c) 2004 - 2015                       |
 |                                                 |
 | Please cite the appropriate publications in all |
 | work arising from your use of CASTEP NMR.       |
 |                                                 |
 | For NMR Shielding Tensors cite:                 |
 |    "All-electron magnetic response with         |
 |    pseudopotentials: NMR chemical shifts",      |
 |    C. J. Pickard, F. Mauri;                     |
 |    Physical Review B63 245101 (2001), and       |
 |                                                 |
 |    "Calculation of NMR Chemical Shifts          |
 |    for extended systems using                   |
 |    Ultrasoft Pseudopotentials",                 |
 |    J. R. Yates, C. J. Pickard and F. Mauri      |
 |    Physical Review B76 024401 (2007)            |
 |                                                 |
 | For Electric Field Gradients cite:              |
 |   "Accurate First Principles Prediction of 17O  |
 |    NMR Parameters in SiO2: Assignment of the    |
 |    Zeolite Ferrierite Spectrum"                 |
 |    M. Profeta, F. Mauri and C. J. Pickard       |
 |    J. Amer. Chem. Soc. 125 541 (2003)           |
 |                                                 |
 | For Spin-Spin (J) Couplings cite:               |
 |   "A first principles theory of NMR J-coupling  |
 |   in solid-state systems"                       |
 |   S.A. Joyce, J.R. Yates, C.J. Pickard, F. Mauri|
 |   J. Chem. Phys. 127 204107 (2007)              |
 |                                                 |
 |   "Relativistic NMR J-coupling with ultrasoft   |
 |   pseudopotentials and the zeroth-order regular |
 |   approximation"                                |
 |   T.F.G. Green and J.R. Yates                   |
 |   J. Chem. Phys. 140 234106 (2014)              |
 |                                                 |
 +-------------------------------------------------+
 
 
 Atomic calculation performed for O: 1s2 2s2 2p4
 
 Converged in 44 iterations to an ae energy of -2040.855 eV
 
 
 Atomic calculation performed for O: 1s2 2s2 2p4
 
 Exceeded max iterations: converged to 0.000000062 eV
 
   ============================================================                
   | Pseudopotential Report - Date of generation 25-03-2022   |                
   ------------------------------------------------------------                
   | Element: O Ionic charge:  6.00 Level of theory: PBE      |                
   | Atomic Solver: ZORA (scalar)                             |                
   |                                                          |                
   |               Reference Electronic Structure             |                
   |         Orbital         Occupation         Energy        |                
   |            2s              2.000           -0.881        |                
   |            2p              4.000           -0.332        |                
   |                                                          |                
   |                 Pseudopotential Definition               |                
   |        Beta     l      e      Rc     scheme   norm       |                
   |          1      0   -0.881   1.100     qc      0         |                
   |          2      0    0.250   1.100     qc      0         |                
   |          3      1   -0.332   1.100     qc      0         |                
   |          4      1    0.250   1.100     qc      0         |                
   |         loc     2    0.000   1.100     pn      0         |                
   |                                                          |                
   | Augmentation charge Rinner = 0.769                       |                
   | Partial core correction Rc = 0.769                       |                
   ------------------------------------------------------------                
   | "2|1.1|15|18|20|20:21(qc=7)"                             |                
   ------------------------------------------------------------                
   |      Author: Chris J. Pickard, Cambridge University      |                
   ============================================================                
 
 Atomic calculation performed for Zr: 1s2 2s2 2p6 3s2 3p6 3d10 4s2 4p6 4d2 5s2
 
 Converged in 52 iterations to an ae energy of -97719.888 eV
 
 
 Atomic calculation performed for Zr: 1s2 2s2 2p6 3s2 3p6 3d10 4s2 4p6 4d2 5s2
 
 Exceeded max iterations: converged to 0.000000936 eV
 
 Warning: ion_atom_descreen_psp: negative charge density encountered
   ============================================================                
   | Pseudopotential Report - Date of generation 25-03-2022   |                
   ------------------------------------------------------------                
   | Element: Zr Ionic charge: 12.00 Level of theory: PBE     |                
   | Atomic Solver: ZORA (scalar)                             |                
   |                                                          |                
   |               Reference Electronic Structure             |                
   |         Orbital         Occupation         Energy        |                
   |            4s              2.000           -2.003        |                
   |            4p              6.000           -1.193        |                
   |            5s              2.000           -0.163        |                
   |            4d              2.000           -0.132        |                
   |                                                          |                
   |                 Pseudopotential Definition               |                
   |        Beta     l      e      Rc     scheme   norm       |                
   |          1      0   -2.003   2.105     qc      0         |                
   |          2      0   -0.163   2.105     qc      0         |                
   |          3      0    0.250   2.105     qc      0         |                
   |          4      1   -1.193   2.105     qc      0         |                
   |          5      1    0.250   2.105     qc      0         |                
   |          6      2   -0.132   2.105     qc      0         |                
   |          7      2    0.250   2.105     qc      0         |                
   |         loc     3    0.000   2.105     pn      0         |                
   |                                                          |                
   | Augmentation charge Rinner = 1.471                       |                
   | Partial core correction Rc = 1.471                       |                
   ------------------------------------------------------------                
   | "3|2.1|7|8|9|40U:50:41:42"                               |                
   ------------------------------------------------------------                
   |      Author: Chris J. Pickard, Cambridge University      |                
   ============================================================                
 
 Atomic calculation performed for Sn:
 1s2 2s2 2p6 3s2 3p6 3d10 4s2 4p6 4d10 5s2 5p2
 
 Converged in 58 iterations to an ae energy of -167539.320 eV
 
 
 Atomic calculation performed for Sn:
 1s2 2s2 2p6 3s2 3p6 3d10 4s2 4p6 4d10 5s2 5p2
 
 Exceeded max iterations: converged to -0.000000491 eV
 
   ============================================================                
   | Pseudopotential Report - Date of generation 25-03-2022   |                
   ------------------------------------------------------------                
   | Element: Sn Ionic charge: 14.00 Level of theory: PBE     |                
   | Atomic Solver: ZORA (scalar)                             |                
   |                                                          |                
   |               Reference Electronic Structure             |                
   |         Orbital         Occupation         Energy        |                
   |            4d             10.000           -0.950        |                
   |            5s              2.000           -0.388        |                
   |            5p              2.000           -0.136        |                
   |                                                          |                
   |                 Pseudopotential Definition               |                
   |        Beta     l      e      Rc     scheme   norm       |                
   |          1      0   -0.388   2.199     qc      0         |                
   |          2      0    0.250   2.199     qc      0         |                
   |          3      1   -0.136   2.199     qc      0         |                
   |          4      1    0.250   2.199     qc      0         |                
   |          5      2   -0.950   2.199     qc      0         |                
   |          6      2    0.250   2.199     qc      0         |                
   |         loc     3    0.000   2.199     pn      0         |                
   |                                                          |                
   | Augmentation charge Rinner = 1.537                       |                
   | Partial core correction Rc = 1.537                       |                
   ------------------------------------------------------------                
   | "3|2.2|7|8|9|50:51:42"                                   |                
   ------------------------------------------------------------                
   |      Author: Chris J. Pickard, Cambridge University      |                
   ============================================================                
 
 Atomic calculation performed for La:
 1s2 2s2 2p6 3s2 3p6 3d10 4s2 4p6 4d10 5s2 5p6 5d1 6s2
 
 Converged in 55 iterations to an ae energy of -230121.495 eV
 
 
 Atomic calculation performed for La:
 1s2 2s2 2p6 3s2 3p6 3d10 4s2 4p6 4d10 5s2 5p6 5d1 6s2
 
 Exceeded max iterations: converged to 0.000001134 eV
 
 Warning: ion_atom_descreen_psp: negative charge density encountered
   ============================================================                
   | Pseudopotential Report - Date of generation 25-03-2022   |                
   ------------------------------------------------------------                
   | Element: La Ionic charge: 11.00 Level of theory: PBE     |                
   | Atomic Solver: ZORA (scalar)                             |                
   |                                                          |                
   |               Reference Electronic Structure             |                
   |         Orbital         Occupation         Energy        |                
   |            5s              2.000           -1.430        |                
   |            5p              6.000           -0.823        |                
   |            6s              2.000           -0.135        |                
   |            5d              1.000           -0.114        |                
   |                                                          |                
   |                 Pseudopotential Definition               |                
   |        Beta     l      e      Rc     scheme   norm       |                
   |          1      0   -1.430   2.298     qc      0         |                
   |          2      0   -0.135   2.298     qc      0         |                
   |          3      0    0.250   2.298     qc      0         |                
   |          4      1   -0.823   2.298     qc      0         |                
   |          5      1    0.250   2.298     qc      0         |                
   |          6      2   -0.114   2.298     qc      0         |                
   |          7      2    0.250   2.298     qc      0         |                
   |         loc     2    0.000   2.298     pn      0         |                
   |                                                          |                
   | Augmentation charge Rinner = 1.606                       |                
   | Partial core correction Rc = 1.606                       |                
   ------------------------------------------------------------                
   | "2|2.3|5|6|7|50U:60:51:52(qc=4.5)"                       |                
   ------------------------------------------------------------                
   |      Author: Chris J. Pickard, Cambridge University      |                
   ============================================================                
 
 Pseudo atomic calculation performed for O 2s2 2p4
 
 Converged in 39 iterations to a total energy of -432.6554 eV
 
 
 Pseudo atomic calculation performed for Zr 4s2 4p6 4d2 5s2
 
 Converged in 38 iterations to a total energy of -1285.4931 eV
 
 
 Pseudo atomic calculation performed for Sn 4d10 5s2 5p2
 
 Converged in 48 iterations to a total energy of -2044.5413 eV
 
 
 Pseudo atomic calculation performed for La 5s2 5p6 5d1 6s2
 
 Converged in 34 iterations to a total energy of -968.0373 eV
 
 Calculation parallelised over 896 processes.
 Data is distributed by G-vector(64-way) and k-point(14-way)

 ************************************ Title ************************************
 nmr testing

 ***************************** General Parameters ******************************
  
 output verbosity                               : normal  (1)
 write checkpoint data to                       : 04.check
 type of calculation                            : Magnetic Resonance
 stress calculation                             : on
 density difference calculation                 : off
 electron localisation func (ELF) calculation   : off
 Hirshfeld analysis                             : off
 unlimited duration calculation
 timing information                             : on
 memory usage estimate                          : on
 write final potential to formatted file        : off
 write final density to formatted file          : off
 write BibTeX reference list                    : off
 write OTFG pseudopotential files               : on
 checkpoint writing                             : off
  
 output         length unit                     : A
 output           mass unit                     : amu
 output           time unit                     : ps
 output         charge unit                     : e
 output           spin unit                     : hbar/2
 output         energy unit                     : eV
 output          force unit                     : eV/A
 output       velocity unit                     : A/ps
 output       pressure unit                     : GPa
 output     inv_length unit                     : 1/A
 output      frequency unit                     : cm-1
 output force constant unit                     : eV/A**2
 output         volume unit                     : A**3
 output   IR intensity unit                     : (D/A)**2/amu
 output         dipole unit                     : D
 output         efield unit                     : eV/A/e
 output        entropy unit                     : J/mol/K
  
 wavefunctions paging                           : none
 random number generator seed                   : randomised (164223257)
 data distribution                              : optimal for this architecture
 optimization strategy                          : maximize speed(+++)

 *********************** Exchange-Correlation Parameters ***********************
  
 using functional                               : Perdew Burke Ernzerhof
 relativistic treatment                         : ZORA
 DFT+D: Semi-empirical dispersion correction    : off

 ************************* Pseudopotential Parameters **************************
  
 pseudopotential representation                 : reciprocal space
 <beta|phi> representation                      : reciprocal space
 spin-orbit coupling                            : off

 **************************** Basis Set Parameters *****************************
  
 plane wave basis set cut-off                   :   816.3416   eV
 size of standard grid                          :     1.7500
 size of   fine   gmax                          :    25.6161   1/A
 finite basis set correction                    : automatic
 number of sample energies                      :          3
           sample  spacing                      :     5.0000   eV

 **************************** Electronic Parameters ****************************
  
 number of  electrons                           :  718.0    
 net charge of system                           :  0.000    
 treating system as non-spin-polarized
 number of bands                                :        431

 ********************* Electronic Minimization Parameters **********************
  
 Method: Treating system as metallic with density mixing treatment of electrons,
         and number of  SD  steps               :          1
         and number of  CG  steps               :          4
  
 total energy / atom convergence tol.           : 0.1000E-08   eV
 eigen-energy convergence tolerance             : 0.2451E-09   eV
 max force / atom convergence tol.              : ignored
 convergence tolerance window                   :          3   cycles
 max. number of SCF cycles                      :         50
 number of fixed-spin iterations                :         10
 smearing scheme                                : Gaussian
 smearing width                                 : 0.2000       eV
 Fermi energy convergence tolerance             : 0.2721E-13   eV
 periodic dipole correction                     : NONE

 ************************** Density Mixing Parameters **************************
  
 density-mixing scheme                          : Broyden
 max. length of mixing history                  :         20
 charge density mixing amplitude                : 0.8000    
 cut-off energy for mixing                      :  816.3       eV

 *********************** Population Analysis Parameters ************************
  
 Population analysis with cutoff                :  3.000       A

 ************************ Magnetic Resonance Parameters ************************
  
 Magnetic Resonance Property                    : Chemical Shielding + EFG
 Position Operator Method                       : crystal
 max. number of MagRes CG steps                 :        250
 convergence tolerance window                   :          2   cycles
 energy convergence tolerance                   : 0.1000E-11   eV
 band convergence tolerance                     : 0.1000E-08   eV

 *******************************************************************************
  
 
                           -------------------------------
                                      Unit Cell
                           -------------------------------
        Real Lattice(A)                      Reciprocal Lattice(1/A)
  10.8998120  -0.0013768  -0.0013806        0.5764490   0.0000730   0.0000732
  -0.0013800  10.9052254  -0.0053110        0.0000728   0.5761630   0.0002806
  -0.0013837  -0.0053110  10.9052272        0.0000730   0.0002806   0.5761629
 
                       Lattice parameters(A)       Cell Angles
                    a =   10.899812          alpha =   90.055807
                    b =   10.905227          beta  =   90.014524
                    c =   10.905229          gamma =   90.014484
 
                       Current cell volume = 1296.248469       A**3
 
                           -------------------------------
                                     Cell Contents
                           -------------------------------
                         Total number of ions in cell =   88
                      Total number of species in cell =    4
                        Max number of any one species =   56
 
            xxxxxxxxxxxxxxxxxxxxxxxxxxxxxxxxxxxxxxxxxxxxxxxxxxxxxxxxxxxx
            x  Element    Atom        Fractional coordinates of atoms  x
            x            Number           u          v          w      x
            x----------------------------------------------------------x
            x  O            1         0.124830   0.124775   0.124931   x 
            x  O            2         0.625012   0.125326   0.625036   x 
            x  O            3         0.125113   0.624889   0.625044   x 
            x  O            4         0.625149   0.625015   0.125065   x 
            x  O            5         0.874887   0.374956   0.375111   x 
            x  O            6         0.875170   0.875069   0.875225   x 
            x  O            7         0.374988   0.374964   0.874674   x 
            x  O            8         0.374851   0.874935   0.374985   x 
            x  O            9         0.419904   0.125420   0.124873   x 
            x  O           10         0.329823   0.124869   0.624996   x 
            x  O           11         0.829687   0.626231   0.624669   x 
            x  O           12         0.920462   0.624313   0.124648   x 
            x  O           13         0.125523   0.419886   0.125016   x 
            x  O           14         0.624313   0.329501   0.125850   x 
            x  O           15         0.625585   0.830231   0.625577   x 
            x  O           16         0.124164   0.920621   0.624311   x 
            x  O           17         0.124390   0.124418   0.420782   x 
            x  O           18         0.125601   0.624517   0.329596   x 
            x  O           19         0.624706   0.626299   0.829553   x 
            x  O           20         0.624445   0.123836   0.920327   x 
            x  O           21         0.874399   0.670404   0.375483   x 
            x  O           22         0.875610   0.579218   0.875582   x 
            x  O           23         0.375555   0.079673   0.876164   x 
            x  O           24         0.375294   0.170447   0.373701   x 
            x  O           25         0.170313   0.375331   0.373768   x 
            x  O           26         0.079538   0.875352   0.375687   x 
            x  O           27         0.580096   0.875127   0.874580   x 
            x  O           28         0.670177   0.375004   0.875131   x 
            x  O           29         0.875836   0.375689   0.079379   x 
            x  O           30         0.374415   0.374423   0.169769   x 
            x  O           31         0.375687   0.874150   0.670499   x 
            x  O           32         0.874478   0.874984   0.580114   x 
            x  O           33         0.670463   0.874535   0.375874   x 
            x  O           34         0.079336   0.375688   0.876192   x 
            x  O           35         0.375345   0.670411   0.874343   x 
            x  O           36         0.875265   0.079650   0.375661   x 
            x  O           37         0.874822   0.374941   0.670167   x 
            x  O           38         0.375576   0.875909   0.079605   x 
            x  O           39         0.125178   0.329833   0.625059   x 
            x  O           40         0.624424   0.920395   0.124091   x 
            x  O           41         0.920664   0.123808   0.624312   x 
            x  O           42         0.329537   0.624126   0.125465   x 
            x  O           43         0.124735   0.624339   0.920350   x 
            x  O           44         0.624655   0.125657   0.329589   x 
            x  O           45         0.420337   0.625770   0.625522   x 
            x  O           46         0.829992   0.125324   0.125463   x 
            x  O           47         0.125569   0.125409   0.829864   x 
            x  O           48         0.625715   0.625489   0.420528   x 
            x  O           49         0.874431   0.170136   0.874591   x 
            x  O           50         0.374285   0.579472   0.374511   x 
            x  O           51         0.170008   0.874537   0.874676   x 
            x  O           52         0.579663   0.374478   0.374230   x 
            x  O           53         0.874603   0.874619   0.169922   x 
            x  O           54         0.374906   0.375367   0.580033   x 
            x  O           55         0.125397   0.830078   0.125381   x 
            x  O           56         0.625094   0.419967   0.624633   x 
            x  Zr           1         0.500000   0.499964   0.500036   x 
            x  Zr           2         0.249927   0.750062  -0.000068   x 
            x  Zr           3         0.750073   0.000068   0.249938   x 
            x  Zr           4         0.000000   0.250089   0.749911   x 
            x  Zr           5         0.749742   0.249705   0.000205   x 
            x  Zr           6         0.250258  -0.000205   0.750295   x 
            x  Zr           7         0.000000   0.749965   0.250035   x 
            x  Zr           8         0.250332   0.250387   0.499782   x 
            x  Zr           9         0.749667   0.500218   0.749613   x 
            x  Sn           1         0.500000   0.000020  -0.000020   x 
            x  Sn           2         0.750030   0.750158   0.500168   x 
            x  Sn           3         0.249970   0.499832   0.249842   x 
            x  Sn           4         0.000570   0.500360   0.000545   x 
            x  Sn           5         0.499886   0.249980   0.249839   x 
            x  Sn           6         0.500114   0.750161   0.750020   x 
            x  Sn           7        -0.000570  -0.000545   0.499640   x 
            x  La           1         0.000000   0.000094  -0.000094   x 
            x  La           2         0.749963   0.249992   0.500017   x 
            x  La           3         0.250037   0.499983   0.750008   x 
            x  La           4         0.500000   0.749958   0.250042   x 
            x  La           5         0.249952   0.749923   0.500072   x 
            x  La           6         0.750048   0.499928   0.250077   x 
            x  La           7         0.500000   0.250025   0.749975   x 
            x  La           8         0.000000   0.499969   0.500031   x 
            x  La           9         0.750198   0.749900  -0.000088   x 
            x  La          10         0.249802   0.000088   0.250100   x 
            x  La          11         0.249830   0.249907  -0.000245   x 
            x  La          12         0.750170   0.000245   0.750093   x 
            x  La          13         0.499988   0.000213   0.500030   x 
            x  La          14        -0.000039   0.749881   0.750107   x 
            x  La          15         0.000039   0.249893   0.250119   x 
            x  La          16         0.500012   0.499970  -0.000213   x 
            xxxxxxxxxxxxxxxxxxxxxxxxxxxxxxxxxxxxxxxxxxxxxxxxxxxxxxxxxxxx
 
 
                         No user defined ionic velocities
 
                           -------------------------------
                                   Details of Species
                           -------------------------------
 
                               Mass of species in AMU
                                    O   15.9994000
                                    Zr   91.2240000
                                    Sn  118.7100000
                                    La  138.9055000
 
                          Electric Quadrupole Moment (Barn)
                                    O   -0.0255800 Isotope 17
                                    Zr   -0.1760000 Isotope 91
                                    Sn    1.0000000 No Isotope Defined
                                    La    0.2000000 Isotope139
 
                          Files used for pseudopotentials:
                                    O 2|1.1|15|18|20|20:21(qc=7)
                                    Zr 3|2.1|7|8|9|40U:50:41:42
                                    Sn 3|2.2|7|8|9|50:51:42
                                    La 2|2.3|5|6|7|50U:60:51:52(qc=4.5)
 
                           -------------------------------
                              k-Points For BZ Sampling
                           -------------------------------
                       MP grid size for SCF calculation is  3  3  3
                            with an offset of   0.000  0.000  0.000
                       Number of kpoints used =   14
 
                           -------------------------------
                               Symmetry and Constraints
                           -------------------------------
 
                      Maximum deviation from symmetry =  0.00000         ANG
 
         There are no symmetry operations specified or generated for this cell
                      Number of ionic constraints     = 3
                      Point group of crystal =     1: C1, 1, 1
                      Space group of crystal =     5: C2, C 2y
 
 
                         Centre of mass is constrained
             Set iprint > 1 for details of linear ionic constraints
 
                         Number of cell constraints= 0
                         Cell constraints are:  1 2 3 4 5 6
 
                         External pressure/stress (GPa)
                          0.00000   0.00000   0.00000
                                    0.00000   0.00000
                                              0.00000
  
+---------------- MEMORY AND SCRATCH DISK ESTIMATES PER PROCESS --------------+
|                                                     Memory          Disk    |
| Baseline code, static data and system overhead      843.0 MB         0.0 MB |
| BLAS internal memory storage                          0.0 MB         0.0 MB |
| Model and support data                              149.4 MB         0.0 MB |
| Electronic energy minimisation requirements          28.2 MB         0.0 MB |
| Force calculation requirements                        1.5 MB         0.0 MB |
| Stress calculation requirements                       1.8 MB         0.0 MB |
|                                               ----------------------------- |
| Approx. total storage required per process         1020.6 MB         0.0 MB |
|                                                                             |
| Requirements will fluctuate during execution and may exceed these estimates |
+-----------------------------------------------------------------------------+
Calculating finite basis set correction with  3 cut-off energies.
Calculating total energy with cut-off of  806.342eV.
------------------------------------------------------------------------ <-- SCF
SCF loop      Energy           Fermi           Energy gain       Timer   <-- SCF
                               energy          per atom          (sec)   <-- SCF
------------------------------------------------------------------------ <-- SCF
Initial  -5.53324111E+004  0.00000000E+000                        34.64  <-- SCF
      1  -6.37735136E+004  7.54997353E+000   9.59216198E+001      45.42  <-- SCF
      2  -6.63399728E+004  7.06613207E+000   2.91643085E+001      52.83  <-- SCF
      3  -6.64212672E+004  6.71818367E+000   9.23800208E-001      60.98  <-- SCF
      4  -6.64158402E+004  7.71123486E+000  -6.16706130E-002      70.57  <-- SCF
      5  -6.63105782E+004  7.24158275E+000  -1.19615860E+000      79.97  <-- SCF
      6  -6.63121080E+004  7.15969007E+000   1.73837383E-002      92.24  <-- SCF
      7  -6.63118154E+004  7.23125136E+000  -3.32516890E-003     102.09  <-- SCF
      8  -6.63118878E+004  7.23934230E+000   8.23823649E-004     115.32  <-- SCF
      9  -6.63119091E+004  7.24368051E+000   2.41824960E-004     126.66  <-- SCF
     10  -6.63119103E+004  7.24282948E+000   1.28032246E-005     137.19  <-- SCF
     11  -6.63119098E+004  7.24531973E+000  -5.23926497E-006     147.87  <-- SCF
     12  -6.63119102E+004  7.24632714E+000   4.30330683E-006     159.46  <-- SCF
     13  -6.63119102E+004  7.24652802E+000   4.94261814E-007     169.82  <-- SCF
     14  -6.63119102E+004  7.24665333E+000  -5.04112323E-010     179.51  <-- SCF
     15  -6.63119102E+004  7.24669812E+000   1.19319239E-008     189.68  <-- SCF
     16  -6.63119102E+004  7.24667565E+000  -2.56049687E-009     198.30  <-- SCF
     17  -6.63119102E+004  7.24665612E+000  -1.24136781E-009     206.21  <-- SCF
     18  -6.63119102E+004  7.24663783E+000  -3.96821472E-010     213.11  <-- SCF
     19  -6.63119102E+004  7.24662092E+000   3.79666185E-011     219.98  <-- SCF
------------------------------------------------------------------------ <-- SCF
 
Final energy, E             =  -66311.91021876     eV
Final free energy (E-TS)    =  -66311.91021876     eV
(energies not corrected for finite basis set)
 
NB est. 0K energy (E-0.5TS)      =  -66311.91021876     eV
 
Calculating total energy with cut-off of  811.342eV.
------------------------------------------------------------------------ <-- SCF
SCF loop      Energy           Fermi           Energy gain       Timer   <-- SCF
                               energy          per atom          (sec)   <-- SCF
------------------------------------------------------------------------ <-- SCF
Initial  -6.63119102E+004  0.00000000E+000                       222.13  <-- SCF
      1  -6.63119127E+004  7.24661619E+000   2.79448782E-005     230.60  <-- SCF
      2  -6.63119127E+004  7.24661619E+000   2.00238758E-010     236.99  <-- SCF
      3  -6.63119127E+004  7.24660945E+000   1.62851482E-008     243.21  <-- SCF
      4  -6.63119127E+004  7.24661873E+000   5.30126488E-010     249.35  <-- SCF
      5  -6.63119127E+004  7.24661578E+000  -7.08710212E-011     255.50  <-- SCF
------------------------------------------------------------------------ <-- SCF
 
Final energy, E             =  -66311.91267939     eV
Final free energy (E-TS)    =  -66311.91267939     eV
(energies not corrected for finite basis set)
 
NB est. 0K energy (E-0.5TS)      =  -66311.91267939     eV
 
Calculating total energy with cut-off of  816.342eV.
------------------------------------------------------------------------ <-- SCF
SCF loop      Energy           Fermi           Energy gain       Timer   <-- SCF
                               energy          per atom          (sec)   <-- SCF
------------------------------------------------------------------------ <-- SCF
Initial  -6.63119127E+004  0.00000000E+000                       257.62  <-- SCF
      1  -6.63119156E+004  7.24661879E+000   3.31968653E-005     266.23  <-- SCF
      2  -6.63119156E+004  7.24661879E+000   1.98973204E-010     272.54  <-- SCF
      3  -6.63119156E+004  7.24661201E+000   2.04790534E-008     278.84  <-- SCF
      4  -6.63119156E+004  7.24661647E+000   6.47119920E-010     285.19  <-- SCF
      5  -6.63119156E+004  7.24661271E+000  -5.06221580E-012     291.51  <-- SCF
------------------------------------------------------------------------ <-- SCF
 
Final energy, E             =  -66311.91560259     eV
Final free energy (E-TS)    =  -66311.91560259     eV
(energies not corrected for finite basis set)
 
NB est. 0K energy (E-0.5TS)      =  -66311.91560259     eV
 
 For future reference: finite basis dEtot/dlog(Ecut) =      -0.438640eV
 Total energy corrected for finite basis set =  -66311.915601 eV
 
  =====================================================================
  +       Calculation of Nuclear Magnetic Resonance Parameters        +
  + ================================================================= +
 
  Starting Calculation of Electric Field Gradient Tensors         |<-- EFG
  +---------------- MEMORY AND SCRATCH DISK ESTIMATES PER PROCESS --------------+
  |                                                     Memory          Disk    |
  | Model and support data                              151.1 MB         0.0 MB |
  | NMR EFG calculation requirements                     27.3 MB         0.0 MB |
  |                                               ----------------------------- |
  | Approx. total storage required per process          178.4 MB         0.0 MB |
  |                                                                             |
  | Requirements will fluctuate during execution and may exceed these estimates |
  +-----------------------------------------------------------------------------+
  Total Time for EFG Tensors                      30.87 sec       |<-- EFG
 
  Starting Calculation of Chemical Shielding Tensors              |<-- NMR
  +---------------- MEMORY AND SCRATCH DISK ESTIMATES PER PROCESS --------------+
  |                                                     Memory          Disk    |
  | Model and support data                              151.1 MB         0.0 MB |
  | NMR chemical shift calculation requirements          90.3 MB         0.0 MB |
  |                                               ----------------------------- |
  | Approx. total storage required per process          241.4 MB         0.0 MB |
  |                                                                             |
  | Requirements will fluctuate during execution and may exceed these estimates |
  +-----------------------------------------------------------------------------+
  Starting k-point:   1 of   1                                    |<-- NMR
  Total Time for step 1 of 6:                    268.08 sec       |<-- NMR
  Total Time for step 2 of 6:                    269.37 sec       |<-- NMR
  Total Time for step 3 of 6:                    269.68 sec       |<-- NMR
  Total Time for step 4 of 6:                    270.98 sec       |<-- NMR
  Total Time for step 5 of 6:                    268.52 sec       |<-- NMR
  Total Time for step 6 of 6:                    268.61 sec       |<-- NMR
  Total Time for Chemical Shielding Tensors     2379.91 sec       |<-- NMR
 
  ========================================================================
  |           Chemical Shielding and Electric Field Gradient Tensors     |
  |----------------------------------------------------------------------|
  |     Nucleus                Shielding tensor             EFG Tensor   |
  |  Species       Ion    Iso(ppm)   Aniso(ppm)  Asym    Cq(MHz)    Eta  |
  |    O           1     -317.46      14.75      0.94  -3.010E-02   0.06 |
  |    O           2     -317.64     -17.81      0.44  -5.519E-02   0.71 |
  |    O           3     -316.35       7.34      0.67  -3.305E-02   0.33 |
  |    O           4     -316.52       7.99      0.86  -3.963E-02   0.99 |
  |    O           5     -316.35       7.34      0.67  -3.305E-02   0.33 |
  |    O           6     -317.46      14.76      0.94  -3.010E-02   0.06 |
  |    O           7     -317.64     -17.81      0.44  -5.519E-02   0.71 |
  |    O           8     -316.52       7.99      0.86  -3.963E-02   0.99 |
  |    O           9       -4.66      70.21      0.54   3.880E+00   0.86 |
  |    O          10     -160.65     150.91      0.80   1.065E+00   0.71 |
  |    O          11      -88.02      84.32      0.15  -3.178E+00   0.09 |
  |    O          12      -87.50      92.98      0.21  -3.239E+00   0.10 |
  |    O          13       -2.42      70.79      0.59   3.879E+00   0.85 |
  |    O          14      -85.62      87.23      0.35  -3.194E+00   0.09 |
  |    O          15       -2.71      67.83      0.84   3.826E+00   0.89 |
  |    O          16      -83.13      82.56      0.29  -3.202E+00   0.09 |
  |    O          17      -86.13      88.90      0.42  -3.102E+00   0.09 |
  |    O          18      -90.30      90.46      0.31  -3.118E+00   0.09 |
  |    O          19      -86.58      85.64      0.14  -3.196E+00   0.09 |
  |    O          20      -87.17      78.80      0.10  -3.251E+00   0.11 |
  |    O          21      -90.30      90.45      0.31  -3.118E+00   0.09 |
  |    O          22      -86.13      88.90      0.42  -3.102E+00   0.09 |
  |    O          23      -87.17      78.80      0.10  -3.251E+00   0.11 |
  |    O          24      -86.58      85.64      0.14  -3.196E+00   0.09 |
  |    O          25      -88.02      84.33      0.15  -3.178E+00   0.09 |
  |    O          26      -87.50      92.99      0.21  -3.239E+00   0.10 |
  |    O          27       -4.66      70.21      0.54   3.880E+00   0.86 |
  |    O          28     -160.65     150.91      0.80   1.065E+00   0.71 |
  |    O          29      -83.13      82.56      0.29  -3.202E+00   0.09 |
  |    O          30       -2.71      67.84      0.84   3.826E+00   0.89 |
  |    O          31      -85.62      87.23      0.35  -3.194E+00   0.09 |
  |    O          32       -2.43      70.79      0.59   3.879E+00   0.85 |
  |    O          33      -86.29      82.36      0.29  -3.150E+00   0.08 |
  |    O          34      -84.02      76.18      0.18  -3.251E+00   0.11 |
  |    O          35      -89.78      91.15      0.35  -3.107E+00   0.09 |
  |    O          36      -88.72      92.84      0.22  -3.208E+00   0.10 |
  |    O          37     -160.77     158.59      0.79   1.073E+00   0.77 |
  |    O          38      -84.89      84.49      0.21  -3.235E+00   0.09 |
  |    O          39     -160.77     158.58      0.79   1.073E+00   0.77 |
  |    O          40      -84.89      84.49      0.21  -3.235E+00   0.09 |
  |    O          41      -84.02      76.17      0.18  -3.251E+00   0.11 |
  |    O          42      -86.29      82.36      0.29  -3.150E+00   0.08 |
  |    O          43      -88.72      92.84      0.22  -3.208E+00   0.10 |
  |    O          44      -89.77      91.16      0.35  -3.107E+00   0.09 |
  |    O          45      -90.93      91.61      0.19  -3.204E+00   0.11 |
  |    O          46     -163.00     157.66      0.84   1.064E+00   0.80 |
  |    O          47     -162.28     155.86      0.80   1.066E+00   0.77 |
  |    O          48      -89.98      90.61      0.29  -3.149E+00   0.09 |
  |    O          49     -162.28     155.86      0.80   1.066E+00   0.77 |
  |    O          50      -89.98      90.61      0.29  -3.149E+00   0.09 |
  |    O          51     -163.00     157.66      0.84   1.064E+00   0.80 |
  |    O          52      -90.93      91.61      0.19  -3.204E+00   0.11 |
  |    O          53     -163.26     159.44      0.83   1.066E+00   0.79 |
  |    O          54     -164.51     162.66      0.80   1.065E+00   0.86 |
  |    O          55     -163.26     159.43      0.83   1.066E+00   0.79 |
  |    O          56     -164.51     162.66      0.80   1.065E+00   0.86 |
  |    Zr          1     1622.94    -124.15      0.08  -3.709E+01   0.08 |
  |    Zr          2     1621.47    -124.18      0.12  -3.677E+01   0.06 |
  |    Zr          3     1621.47    -124.18      0.12  -3.677E+01   0.06 |
  |    Zr          4     1632.55    -130.41      0.19  -3.843E+01   0.13 |
  |    Zr          5     1627.17    -126.63      0.12  -3.746E+01   0.11 |
  |    Zr          6     1627.17    -126.63      0.12  -3.746E+01   0.11 |
  |    Zr          7     1622.12    -123.46      0.10  -3.706E+01   0.03 |
  |    Zr          8     1626.91    -125.39      0.10  -3.749E+01   0.08 |
  |    Zr          9     1626.91    -125.39      0.10  -3.749E+01   0.08 |
  |    Sn          1     3257.76     -65.23      0.04   1.293E+02   0.23 |
  |    Sn          2     3256.39     -52.01      0.14   1.279E+02   0.08 |
  |    Sn          3     3256.40     -52.00      0.14   1.279E+02   0.08 |
  |    Sn          4     3250.47     -47.99      0.22   1.308E+02   0.15 |
  |    Sn          5     3256.79     -54.60      0.22   1.285E+02   0.13 |
  |    Sn          6     3256.79     -54.60      0.22   1.285E+02   0.13 |
  |    Sn          7     3250.47     -47.98      0.22   1.308E+02   0.15 |
  |    La          1     4799.28     970.34      0.00  -8.985E+01   0.00 |
  |    La          2     4702.84     766.36      0.04  -8.281E+01   0.07 |
  |    La          3     4702.84     766.36      0.04  -8.281E+01   0.07 |
  |    La          4     4662.00     640.11      0.01  -8.161E+01   0.00 |
  |    La          5     4655.82     645.21      0.01  -8.035E+01   0.01 |
  |    La          6     4655.82     645.22      0.01  -8.035E+01   0.01 |
  |    La          7     4752.33     872.35      0.05  -8.647E+01   0.08 |
  |    La          8     4708.35     759.89      0.03  -8.387E+01   0.08 |
  |    La          9     4654.33     653.08      0.09  -7.996E+01   0.15 |
  |    La         10     4654.32     653.08      0.09  -7.996E+01   0.15 |
  |    La         11     4595.85     511.29      0.09  -7.558E+01   0.09 |
  |    La         12     4595.85     511.29      0.09  -7.558E+01   0.09 |
  |    La         13     4661.74     649.29      0.08  -8.112E+01   0.15 |
  |    La         14     4654.80     656.00      0.10  -8.019E+01   0.15 |
  |    La         15     4654.79     656.00      0.10  -8.019E+01   0.15 |
  |    La         16     4661.74     649.29      0.08  -8.112E+01   0.15 |
  ========================================================================
 
 *********************** Forces ***********************
 *                                                    *
 *            Cartesian components (eV/A)             *
 * -------------------------------------------------- *
 *                   x            y            z      *
 *                                                    *
 * O         1      0.00016      0.01606      0.00198 *
 * O         2      0.00425     -0.00015      0.00392 *
 * O         3     -0.00852     -0.00261      0.00422 *
 * O         4     -0.00262     -0.01025     -0.00790 *
 * O         5      0.00853     -0.00423      0.00262 *
 * O         6     -0.00015     -0.00198     -0.01604 *
 * O         7     -0.00425     -0.00393      0.00016 *
 * O         8      0.00261      0.00789      0.01026 *
 * O         9     -0.01656      0.00991     -0.01016 *
 * O        10      0.02179     -0.00429     -0.01179 *
 * O        11     -0.00008      0.00657      0.02605 *
 * O        12      0.01806     -0.01594      0.01054 *
 * O        13      0.00484     -0.02453     -0.00968 *
 * O        14      0.00137     -0.00241     -0.01249 *
 * O        15      0.01241      0.03444      0.01348 *
 * O        16      0.00379      0.00489      0.00874 *
 * O        17      0.00654      0.01154      0.01547 *
 * O        18     -0.00481     -0.00617     -0.00518 *
 * O        19      0.02195      0.00703     -0.01029 *
 * O        20      0.01164      0.00323      0.00940 *
 * O        21      0.00482      0.00518      0.00616 *
 * O        22     -0.00653     -0.01548     -0.01153 *
 * O        23     -0.01164     -0.00940     -0.00322 *
 * O        24     -0.02195      0.01029     -0.00704 *
 * O        25      0.00007     -0.02605     -0.00658 *
 * O        26     -0.01804     -0.01055      0.01593 *
 * O        27      0.01656      0.01016     -0.00991 *
 * O        28     -0.02179      0.01179      0.00430 *
 * O        29     -0.00379     -0.00874     -0.00489 *
 * O        30     -0.01242     -0.01348     -0.03444 *
 * O        31     -0.00136      0.01249      0.00241 *
 * O        32     -0.00484      0.00969      0.02452 *
 * O        33     -0.00487      0.01679      0.00959 *
 * O        34     -0.01427     -0.01870     -0.00287 *
 * O        35      0.00603      0.00438      0.00173 *
 * O        36     -0.01055     -0.01196      0.01192 *
 * O        37      0.00320     -0.00079     -0.01415 *
 * O        38      0.00170     -0.00264     -0.00609 *
 * O        39     -0.00321      0.01414      0.00078 *
 * O        40     -0.00169      0.00608      0.00265 *
 * O        41      0.01428      0.00288      0.01870 *
 * O        42      0.00486     -0.00962     -0.01677 *
 * O        43      0.01055     -0.01193      0.01196 *
 * O        44     -0.00603     -0.00174     -0.00438 *
 * O        45      0.01778      0.00554     -0.01226 *
 * O        46      0.00748      0.02491      0.01209 *
 * O        47      0.01343      0.02583      0.00197 *
 * O        48     -0.00639     -0.00284      0.01650 *
 * O        49     -0.01344     -0.00196     -0.02583 *
 * O        50      0.00638     -0.01650      0.00284 *
 * O        51     -0.00747     -0.01208     -0.02491 *
 * O        52     -0.01777      0.01226     -0.00554 *
 * O        53     -0.01829     -0.01785     -0.00600 *
 * O        54     -0.00836      0.00644      0.00737 *
 * O        55      0.01828      0.00600      0.01785 *
 * O        56      0.00837     -0.00738     -0.00643 *
 * Zr        1     -0.00001      0.00438     -0.00439 *
 * Zr        2     -0.00901      0.01938      0.01010 *
 * Zr        3      0.00903     -0.01010     -0.01938 *
 * Zr        4     -0.00001     -0.00585      0.00584 *
 * Zr        5      0.00308     -0.01869      0.01384 *
 * Zr        6     -0.00307     -0.01383      0.01867 *
 * Zr        7     -0.00002      0.01303     -0.01303 *
 * Zr        8      0.00487      0.00655     -0.00271 *
 * Zr        9     -0.00485      0.00275     -0.00657 *
 * Sn        1     -0.00000     -0.00806      0.00806 *
 * Sn        2     -0.01080     -0.00615     -0.00782 *
 * Sn        3      0.01085      0.00785      0.00614 *
 * Sn        4      0.00649      0.01786      0.01466 *
 * Sn        5     -0.00477     -0.00088     -0.00368 *
 * Sn        6      0.00477      0.00368      0.00088 *
 * Sn        7     -0.00652     -0.01468     -0.01783 *
 * La        1     -0.00001     -0.01033      0.01031 *
 * La        2     -0.00083      0.00450     -0.01544 *
 * La        3      0.00083      0.01544     -0.00450 *
 * La        4     -0.00001     -0.00108      0.00107 *
 * La        5      0.01248      0.00592     -0.01467 *
 * La        6     -0.01247      0.01468     -0.00592 *
 * La        7     -0.00001     -0.00145      0.00144 *
 * La        8     -0.00001      0.00785     -0.00784 *
 * La        9     -0.00873     -0.00251      0.01483 *
 * La       10      0.00874     -0.01484      0.00251 *
 * La       11      0.00110     -0.00941      0.00989 *
 * La       12     -0.00108     -0.00990      0.00941 *
 * La       13     -0.00751     -0.01743     -0.01536 *
 * La       14      0.00272      0.00055      0.00484 *
 * La       15     -0.00274     -0.00485     -0.00055 *
 * La       16      0.00750      0.01537      0.01743 *
 *                                                    *
 ******************************************************
 
 ***************** Stress Tensor *****************
 *                                               *
 *          Cartesian components (GPa)           *
 * --------------------------------------------- *
 *             x             y             z     *
 *                                               *
 *  x     -0.051977     -0.001741     -0.001813  *
 *  y     -0.001741      0.020291      0.006746  *
 *  z     -0.001813      0.006746      0.020317  *
 *                                               *
 *  Pressure:    0.0038                          *
 *                                               *
 *************************************************
 
 Pseudo atomic calculation performed for O 2s2 2p4
 
 Converged in 39 iterations to a total energy of -432.6554 eV
 
 
 Pseudo atomic calculation performed for Zr 4s2 4p6 4d2 5s2
 
 Converged in 38 iterations to a total energy of -1285.4931 eV
 
 
 Pseudo atomic calculation performed for Sn 4d10 5s2 5p2
 
 Converged in 48 iterations to a total energy of -2044.5413 eV
 
 
 Pseudo atomic calculation performed for La 5s2 5p6 5d1 6s2
 
 Converged in 34 iterations to a total energy of -968.0373 eV
 
Charge spilling parameter for spin component 1 = 0.24%
 
     Atomic Populations (Mulliken)
     -----------------------------
Species   Ion     s      p      d      f     Total  Charge (e)
==============================================================
  O        1     1.87   5.00   0.00   0.00   6.87    -0.87
  O        2     1.87   5.00   0.00   0.00   6.87    -0.87
  O        3     1.87   5.00   0.00   0.00   6.87    -0.87
  O        4     1.87   5.00   0.00   0.00   6.87    -0.87
  O        5     1.87   5.00   0.00   0.00   6.87    -0.87
  O        6     1.87   5.00   0.00   0.00   6.87    -0.87
  O        7     1.87   5.00   0.00   0.00   6.87    -0.87
  O        8     1.87   5.00   0.00   0.00   6.87    -0.87
  O        9     1.88   5.02   0.00   0.00   6.91    -0.91
  O       10     1.86   4.95   0.00   0.00   6.80    -0.80
  O       11     1.87   4.99   0.00   0.00   6.86    -0.86
  O       12     1.87   4.99   0.00   0.00   6.86    -0.86
  O       13     1.88   5.02   0.00   0.00   6.91    -0.91
  O       14     1.87   4.99   0.00   0.00   6.86    -0.86
  O       15     1.88   5.02   0.00   0.00   6.91    -0.91
  O       16     1.87   4.99   0.00   0.00   6.85    -0.85
  O       17     1.87   4.99   0.00   0.00   6.85    -0.85
  O       18     1.87   4.99   0.00   0.00   6.86    -0.86
  O       19     1.87   4.99   0.00   0.00   6.86    -0.86
  O       20     1.87   4.99   0.00   0.00   6.86    -0.86
  O       21     1.87   4.99   0.00   0.00   6.86    -0.86
  O       22     1.87   4.99   0.00   0.00   6.85    -0.85
  O       23     1.87   4.99   0.00   0.00   6.86    -0.86
  O       24     1.87   4.99   0.00   0.00   6.86    -0.86
  O       25     1.87   4.99   0.00   0.00   6.86    -0.86
  O       26     1.87   4.99   0.00   0.00   6.86    -0.86
  O       27     1.88   5.02   0.00   0.00   6.91    -0.91
  O       28     1.86   4.95   0.00   0.00   6.80    -0.80
  O       29     1.87   4.99   0.00   0.00   6.85    -0.85
  O       30     1.88   5.02   0.00   0.00   6.91    -0.91
  O       31     1.87   4.99   0.00   0.00   6.86    -0.86
  O       32     1.88   5.02   0.00   0.00   6.91    -0.91
  O       33     1.87   4.99   0.00   0.00   6.86    -0.86
  O       34     1.87   4.99   0.00   0.00   6.85    -0.85
  O       35     1.87   4.99   0.00   0.00   6.86    -0.86
  O       36     1.87   4.99   0.00   0.00   6.85    -0.85
  O       37     1.86   4.95   0.00   0.00   6.80    -0.80
  O       38     1.87   4.99   0.00   0.00   6.86    -0.86
  O       39     1.86   4.95   0.00   0.00   6.80    -0.80
  O       40     1.87   4.99   0.00   0.00   6.86    -0.86
  O       41     1.87   4.99   0.00   0.00   6.85    -0.85
  O       42     1.87   4.99   0.00   0.00   6.86    -0.86
  O       43     1.87   4.99   0.00   0.00   6.85    -0.85
  O       44     1.87   4.99   0.00   0.00   6.86    -0.86
  O       45     1.87   4.99   0.00   0.00   6.86    -0.86
  O       46     1.86   4.95   0.00   0.00   6.80    -0.80
  O       47     1.86   4.95   0.00   0.00   6.80    -0.80
  O       48     1.87   4.99   0.00   0.00   6.86    -0.86
  O       49     1.86   4.95   0.00   0.00   6.80    -0.80
  O       50     1.87   4.99   0.00   0.00   6.86    -0.86
  O       51     1.86   4.95   0.00   0.00   6.80    -0.80
  O       52     1.87   4.99   0.00   0.00   6.86    -0.86
  O       53     1.86   4.95   0.00   0.00   6.80    -0.80
  O       54     1.86   4.95   0.00   0.00   6.80    -0.80
  O       55     1.86   4.95   0.00   0.00   6.80    -0.80
  O       56     1.86   4.95   0.00   0.00   6.80    -0.80
  Zr       1     2.38   6.49   1.92   0.00  10.79     1.21
  Zr       2     2.37   6.49   1.92   0.00  10.79     1.21
  Zr       3     2.37   6.49   1.92   0.00  10.79     1.21
  Zr       4     2.37   6.48   1.93   0.00  10.77     1.23
  Zr       5     2.37   6.49   1.92   0.00  10.78     1.22
  Zr       6     2.37   6.49   1.92   0.00  10.78     1.22
  Zr       7     2.38   6.49   1.92   0.00  10.79     1.21
  Zr       8     2.37   6.48   1.92   0.00  10.78     1.22
  Zr       9     2.37   6.48   1.92   0.00  10.78     1.22
  Sn       1     1.05   1.31  10.00   0.00  12.36     1.64
  Sn       2     1.05   1.31  10.00   0.00  12.36     1.64
  Sn       3     1.05   1.31  10.00   0.00  12.36     1.64
  Sn       4     1.05   1.31  10.00   0.00  12.36     1.64
  Sn       5     1.05   1.31  10.00   0.00  12.36     1.64
  Sn       6     1.05   1.31  10.00   0.00  12.36     1.64
  Sn       7     1.05   1.31  10.00   0.00  12.36     1.64
  La       1     2.01   6.14   1.19   0.00   9.35     1.65
  La       2     2.05   6.16   1.19   0.00   9.41     1.59
  La       3     2.05   6.16   1.19   0.00   9.41     1.59
  La       4     2.06   6.18   1.19   0.00   9.43     1.57
  La       5     2.07   6.17   1.19   0.00   9.43     1.57
  La       6     2.07   6.17   1.19   0.00   9.43     1.57
  La       7     2.03   6.15   1.19   0.00   9.37     1.63
  La       8     2.03   6.16   1.19   0.00   9.38     1.62
  La       9     2.08   6.17   1.19   0.00   9.44     1.56
  La      10     2.08   6.17   1.19   0.00   9.44     1.56
  La      11     2.09   6.19   1.19   0.00   9.48     1.52
  La      12     2.09   6.19   1.19   0.00   9.48     1.52
  La      13     2.05   6.18   1.19   0.00   9.42     1.58
  La      14     2.06   6.18   1.19   0.00   9.43     1.57
  La      15     2.06   6.18   1.19   0.00   9.43     1.57
  La      16     2.05   6.18   1.19   0.00   9.42     1.58
==============================================================
 
            Bond              Population      Length (A)
============================================================
         O 26 -- Sn 7              0.35        2.10210
         O 12 -- Sn 4              0.35        2.10210
         O 23 -- Sn 1              0.35        2.10226
         O 20 -- Sn 1              0.35        2.10226
         O 34 -- Sn 4              0.35        2.10288
         O 41 -- Sn 7              0.35        2.10288
         O 31 -- Sn 6              0.35        2.10292
         O 14 -- Sn 5              0.35        2.10292
         O 19 -- Sn 6              0.35        2.10324
         O 24 -- Sn 5              0.35        2.10324
         O 36 -- Sn 7              0.34        2.10391
         O 43 -- Sn 4              0.34        2.10391
         O 40 -- Sn 1              0.35        2.10406
         O 38 -- Sn 1              0.35        2.10406
         O 25 -- Sn 3              0.35        2.10410
         O 11 -- Sn 2              0.35        2.10410
         O 33 -- Sn 2              0.35        2.10540
         O 42 -- Sn 3              0.35        2.10540
         O 52 -- Sn 5              0.34        2.10589
         O 45 -- Sn 6              0.34        2.10589
         O 48 -- Sn 2              0.34        2.10591
         O 50 -- Sn 3              0.34        2.10591
         O 16 -- Sn 7              0.35        2.10663
         O 29 -- Sn 4              0.35        2.10663
         O 18 -- Sn 3              0.34        2.10764
         O 21 -- Sn 2              0.34        2.10764
         O 44 -- Sn 5              0.34        2.10870
         O 35 -- Sn 6              0.34        2.10870
         O 13 -- Sn 3              0.34        2.10931
         O 32 -- Sn 2              0.34        2.10931
         O 17 -- Sn 7              0.34        2.11039
         O 22 -- Sn 4              0.34        2.11039
         O 9  -- Sn 5              0.34        2.11128
         O 27 -- Sn 6              0.34        2.11128
         O 56 -- Zr 9              0.43        2.11266
         O 54 -- Zr 8              0.43        2.11266
         O 56 -- Zr 1              0.42        2.11385
         O 54 -- Zr 1              0.42        2.11385
         O 13 -- Sn 4              0.33        2.11414
         O 32 -- Sn 7              0.33        2.11414
         O 51 -- Zr 2              0.42        2.11444
         O 46 -- Zr 3              0.42        2.11444
         O 15 -- Sn 2              0.33        2.11470
         O 30 -- Sn 3              0.33        2.11470
         O 37 -- Zr 4              0.42        2.11525
         O 39 -- Zr 4              0.42        2.11526
         O 46 -- Zr 5              0.42        2.11528
         O 51 -- Zr 6              0.42        2.11528
         O 53 -- Zr 3              0.42        2.11533
         O 55 -- Zr 2              0.42        2.11533
         O 47 -- Zr 6              0.43        2.11560
         O 49 -- Zr 5              0.43        2.11560
         O 30 -- Sn 5              0.33        2.11591
         O 15 -- Sn 6              0.33        2.11591
         O 37 -- Zr 9              0.43        2.11594
         O 39 -- Zr 8              0.43        2.11594
         O 55 -- Zr 7              0.42        2.11707
         O 53 -- Zr 7              0.42        2.11707
         O 28 -- Zr 5              0.42        2.11737
         O 10 -- Zr 6              0.42        2.11737
         O 47 -- Zr 4              0.42        2.11774
         O 49 -- Zr 4              0.42        2.11774
         O 27 -- Sn 1              0.32        2.11775
         O 9  -- Sn 1              0.32        2.11775
         O 43 -- Zr 2              0.45        2.11922
         O 36 -- Zr 3              0.45        2.11922
         O 28 -- Zr 9              0.43        2.11956
         O 10 -- Zr 8              0.43        2.11956
         O 26 -- Zr 7              0.45        2.11993
         O 12 -- Zr 7              0.45        2.11993
         O 44 -- Zr 3              0.44        2.12090
         O 35 -- Zr 2              0.44        2.12090
         O 18 -- Zr 7              0.44        2.12161
         O 21 -- Zr 7              0.44        2.12161
         O 31 -- Zr 6              0.44        2.12202
         O 14 -- Zr 5              0.44        2.12202
         O 20 -- Zr 5              0.45        2.12231
         O 23 -- Zr 6              0.45        2.12231
         O 19 -- Zr 9              0.44        2.12246
         O 24 -- Zr 8              0.44        2.12246
         O 50 -- Zr 1              0.44        2.12256
         O 48 -- Zr 1              0.44        2.12256
         O 45 -- Zr 1              0.45        2.12283
         O 52 -- Zr 1              0.45        2.12283
         O 25 -- Zr 8              0.44        2.12352
         O 11 -- Zr 9              0.44        2.12352
         O 17 -- Zr 8              0.45        2.12365
         O 22 -- Zr 9              0.45        2.12365
         O 40 -- Zr 3              0.45        2.12371
         O 38 -- Zr 2              0.45        2.12371
         O 34 -- Zr 4              0.45        2.12496
         O 41 -- Zr 4              0.45        2.12496
         O 42 -- Zr 2              0.44        2.12528
         O 33 -- Zr 3              0.44        2.12528
         O 16 -- Zr 6              0.45        2.12559
         O 29 -- Zr 5              0.45        2.12559
         O 1  -- La 1              0.20        2.35658
         O 6  -- La 1              0.20        2.35658
         O 2  -- La 7              0.19        2.35809
         O 7  -- La 7              0.19        2.35809
         O 7  -- La 3              0.17        2.35913
         O 2  -- La 2              0.17        2.35913
         O 5  -- La 8              0.18        2.35979
         O 3  -- La 8              0.18        2.35979
         O 3  -- La 3              0.17        2.36013
         O 5  -- La 2              0.17        2.36013
         O 1  -- La 10             0.18        2.36035
         O 6  -- La 9              0.18        2.36035
         O 7  -- La 16             0.19        2.36039
         O 2  -- La 13             0.19        2.36039
         O 5  -- La 6              0.18        2.36046
         O 3  -- La 5              0.18        2.36046
         O 8  -- La 4              0.18        2.36073
         O 4  -- La 4              0.18        2.36073
         O 1  -- La 15             0.18        2.36090
         O 6  -- La 14             0.18        2.36090
         O 4  -- La 6              0.17        2.36141
         O 8  -- La 5              0.17        2.36141
         O 3  -- La 14             0.17        2.36160
         O 5  -- La 15             0.17        2.36160
         O 8  -- La 10             0.17        2.36197
         O 4  -- La 9              0.17        2.36197
         O 8  -- La 13             0.17        2.36240
         O 4  -- La 16             0.17        2.36240
         O 2  -- La 12             0.16        2.36329
         O 7  -- La 11             0.16        2.36329
         O 6  -- La 12             0.16        2.36337
         O 1  -- La 11             0.16        2.36337
         O 49 -- La 12             0.12        2.66517
         O 47 -- La 11             0.12        2.66517
         O 30 -- La 11             0.24        2.66801
         O 15 -- La 12             0.24        2.66801
         O 53 -- La 9              0.13        2.66810
         O 55 -- La 10             0.13        2.66810
         O 51 -- La 14             0.12        2.66882
         O 46 -- La 15             0.12        2.66882
         O 25 -- La 15             0.18        2.66981
         O 11 -- La 14             0.18        2.66981
         O 24 -- La 10             0.19        2.67061
         O 19 -- La 9              0.19        2.67061
         O 54 -- La 3              0.13        2.67067
         O 56 -- La 2              0.13        2.67067
         O 13 -- La 11             0.23        2.67117
         O 32 -- La 12             0.23        2.67117
         O 20 -- La 12             0.17        2.67173
         O 23 -- La 11             0.17        2.67173
         O 28 -- La 16             0.13        2.67287
         O 10 -- La 13             0.13        2.67287
         O 39 -- La 3              0.12        2.67295
         O 37 -- La 2              0.12        2.67295
         O 9  -- La 11             0.24        2.67296
         O 27 -- La 12             0.24        2.67296
         O 44 -- La 2              0.18        2.67415
         O 35 -- La 3              0.18        2.67415
         O 36 -- La 2              0.18        2.67441
         O 43 -- La 3              0.18        2.67441
         O 34 -- La 11             0.18        2.67475
         O 41 -- La 12             0.18        2.67475
         O 28 -- La 7              0.13        2.67486
         O 10 -- La 7              0.13        2.67486
         O 18 -- La 5              0.18        2.67515
         O 21 -- La 6              0.18        2.67515
         O 45 -- La 5              0.19        2.67533
         O 52 -- La 6              0.19        2.67533
         O 14 -- La 6              0.17        2.67593
         O 31 -- La 5              0.17        2.67593
         O 33 -- La 13             0.19        2.67642
         O 42 -- La 16             0.19        2.67643
         O 48 -- La 6              0.18        2.67655
         O 50 -- La 5              0.18        2.67655
         O 26 -- La 5              0.19        2.67671
         O 12 -- La 6              0.19        2.67671
         O 54 -- La 7              0.13        2.67706
         O 56 -- La 7              0.13        2.67706
         O 38 -- La 10             0.18        2.67723
         O 40 -- La 9              0.18        2.67723
         O 39 -- La 8              0.13        2.67738
         O 37 -- La 8              0.13        2.67738
         O 22 -- La 9              0.18        2.67745
         O 17 -- La 10             0.18        2.67746
         O 51 -- La 1              0.13        2.67816
         O 46 -- La 1              0.13        2.67816
         O 32 -- La 14             0.23        2.67829
         O 13 -- La 15             0.23        2.67829
         O 12 -- La 9              0.17        2.67840
         O 26 -- La 10             0.17        2.67840
         O 52 -- La 2              0.18        2.67841
         O 45 -- La 3              0.18        2.67841
         O 27 -- La 9              0.24        2.67848
         O 9  -- La 10             0.24        2.67848
         O 33 -- La 4              0.18        2.67855
         O 42 -- La 4              0.18        2.67855
         O 43 -- La 14             0.17        2.67867
         O 36 -- La 15             0.17        2.67867
         O 17 -- La 15             0.18        2.67914
         O 22 -- La 14             0.18        2.67914
         O 44 -- La 13             0.19        2.67917
         O 16 -- La 5              0.18        2.67917
         O 35 -- La 16             0.19        2.67917
         O 29 -- La 6              0.18        2.67917
         O 21 -- La 8              0.19        2.67932
         O 18 -- La 8              0.19        2.67932
         O 48 -- La 4              0.19        2.67978
         O 50 -- La 4              0.19        2.67978
         O 55 -- La 1              0.13        2.68016
         O 53 -- La 1              0.13        2.68016
         O 49 -- La 1              0.14        2.68043
         O 47 -- La 1              0.14        2.68044
         O 38 -- La 4              0.19        2.68050
         O 40 -- La 4              0.19        2.68050
         O 29 -- La 15             0.18        2.68071
         O 16 -- La 14             0.18        2.68071
         O 14 -- La 16             0.18        2.68081
         O 31 -- La 13             0.18        2.68081
         O 11 -- La 8              0.17        2.68112
         O 25 -- La 8              0.17        2.68112
         O 20 -- La 7              0.19        2.68131
         O 23 -- La 7              0.19        2.68131
         O 15 -- La 13             0.23        2.68142
         O 30 -- La 16             0.23        2.68142
         O 41 -- La 2              0.18        2.68259
         O 34 -- La 3              0.18        2.68260
         O 24 -- La 13             0.17        2.68270
         O 19 -- La 16             0.17        2.68270
         O 31 -- O 45             -0.06        2.79506
         O 14 -- O 52             -0.06        2.79506
         O 20 -- O 23             -0.06        2.79672
         O 38 -- O 40             -0.06        2.79749
         O 36 -- O 41             -0.06        2.79753
         O 34 -- O 43             -0.06        2.79753
         O 16 -- O 26             -0.06        2.79787
         O 12 -- O 29             -0.06        2.79787
         O 18 -- O 50             -0.06        2.79805
         O 21 -- O 48             -0.06        2.79805
         O 11 -- O 32             -0.06        2.79914
         O 13 -- O 25             -0.06        2.79914
         O 20 -- O 27             -0.06        2.79916
         O 9  -- O 23             -0.06        2.79916
         O 44 -- O 52             -0.06        2.79973
         O 35 -- O 45             -0.06        2.79973
         O 19 -- O 27             -0.06        2.79981
         O 9  -- O 24             -0.06        2.79981
         O 13 -- O 30             -0.05        2.80075
         O 15 -- O 32             -0.05        2.80075
         O 13 -- O 34             -0.06        2.80096
         O 32 -- O 41             -0.06        2.80096
         O 17 -- O 36             -0.06        2.80217
         O 22 -- O 43             -0.06        2.80217
         O 33 -- O 48             -0.06        2.80235
         O 42 -- O 50             -0.06        2.80235
         O 12 -- O 22             -0.06        2.80263
         O 17 -- O 26             -0.06        2.80263
         O 18 -- O 25             -0.06        2.80305
         O 11 -- O 21             -0.06        2.80305
         O 9  -- O 30             -0.05        2.80309
         O 15 -- O 27             -0.05        2.80310
         O 19 -- O 35             -0.06        2.80327
         O 24 -- O 44             -0.06        2.80327
         O 9  -- O 38             -0.06        2.80668
         O 27 -- O 40             -0.06        2.80668
         O 16 -- O 32             -0.06        2.80801
         O 13 -- O 29             -0.05        2.80801
         O 14 -- O 30             -0.05        2.80883
         O 15 -- O 31             -0.05        2.80883
         O 15 -- O 33             -0.05        2.80908
         O 30 -- O 42             -0.05        2.80908
         O 37 -- O 56             -0.03        2.81023
         O 39 -- O 54             -0.03        2.81023
         O 54 -- O 56             -0.03        2.81209
         O 23 -- O 47             -0.03        2.81580
         O 20 -- O 49             -0.03        2.81580
         O 37 -- O 39             -0.03        2.81627
         O 38 -- O 55             -0.03        2.81700
         O 40 -- O 53             -0.03        2.81701
         O 43 -- O 51             -0.03        2.81748
         O 36 -- O 46             -0.03        2.81748
         O 12 -- O 53             -0.03        2.81829
         O 26 -- O 55             -0.03        2.81830
         O 45 -- O 54             -0.03        2.81862
         O 52 -- O 56             -0.03        2.81862
         O 53 -- O 55             -0.03        2.81875
         O 28 -- O 56             -0.03        2.81893
         O 10 -- O 54             -0.03        2.81893
         O 46 -- O 53             -0.03        2.81945
         O 51 -- O 55             -0.03        2.81945
         O 34 -- O 47             -0.03        2.82076
         O 41 -- O 49             -0.03        2.82076
         O 29 -- O 46             -0.03        2.82114
         O 16 -- O 51             -0.03        2.82114
         O 47 -- O 51             -0.03        2.82157
         O 46 -- O 49             -0.03        2.82157
         O 36 -- O 44             -0.03        2.82246
         O 35 -- O 43             -0.03        2.82246
         O 47 -- O 49             -0.03        2.82309
         O 10 -- O 31             -0.03        2.82398
         O 14 -- O 28             -0.03        2.82399
         O 18 -- O 26             -0.03        2.82584
         O 12 -- O 21             -0.03        2.82584
         O 19 -- O 22             -0.03        2.82758
         O 17 -- O 24             -0.03        2.82758
         O 20 -- O 28             -0.03        2.82769
         O 10 -- O 23             -0.03        2.82769
         O 45 -- O 50             -0.03        2.82779
         O 48 -- O 52             -0.03        2.82779
         O 37 -- O 41             -0.03        2.82810
         O 34 -- O 39             -0.03        2.82810
         O 18 -- O 21             -0.03        2.82819
         O 11 -- O 37             -0.03        2.82862
         O 25 -- O 39             -0.03        2.82862
         O 11 -- O 22             -0.03        2.82890
         O 17 -- O 25             -0.03        2.82890
         O 19 -- O 28             -0.03        2.82946
         O 10 -- O 24             -0.03        2.82946
         O 33 -- O 44             -0.03        2.82966
         O 35 -- O 42             -0.03        2.82966
         O 48 -- O 50             -0.03        2.83061
         O 16 -- O 31             -0.03        2.83322
         O 14 -- O 29             -0.03        2.83322
         O 38 -- O 42             -0.03        2.83604
         O 33 -- O 40             -0.03        2.83604
============================================================
 
Initialisation time =     24.83 s
Calculation time    =   2694.33 s
Finalisation time   =      0.12 s
Total time          =   2719.29 s
Peak Memory Use     = 3714696 kB
  
Overall parallel efficiency rating: Good (73%)                                  
  
Data was distributed by:-
G-vector (64-way); efficiency rating: Good (75%)                                
k-point (14-way); efficiency rating: Excellent (96%)                            
