 +-------------------------------------------------+
 |                                                 |
 |      CCC   AA    SSS  TTTTT  EEEEE  PPPP        |
 |     C     A  A  S       T    E      P   P       |
 |     C     AAAA   SS     T    EEE    PPPP        |
 |     C     A  A     S    T    E      P           |
 |      CCC  A  A  SSS     T    EEEEE  P           |
 |                                                 |
 +-------------------------------------------------+
 |                                                 |
 | Welcome to Academic Release CASTEP version 16.1 |          
 | Ab Initio Total Energy Program                  |
 |                                                 |
 | Authors:                                        |
 | M. Segall, M. Probert, C. Pickard, P. Hasnip,   |
 | S. Clark, K. Refson, J. R. Yates, M. Payne      |
 |                                                 |
 | Contributors:                                   |
 | P. Lindan, P. Haynes, J. White, V. Milman,      |
 | N. Govind, M. Gibson, P. Tulip, V. Cocula,      |
 | B. Montanari, D. Quigley, M. Glover,            |
 | L. Bernasconi, A. Perlov, M. Plummer,           |
 | E. McNellis, J. Meyer, J. Gale, D. Jochym       |
 | J. Aarons, B. Walker, R. Gillen, D. Jones       |
 | T. Green, I. J. Bush, C. J. Armstrong,          |
 | E. J. Higgins, E. L. Brown, M. S. McFly         |
 |                                                 |
 | Copyright (c) 2000 - 2015                       |
 |                                                 |
 |     Distributed under the terms of an           |
 |     Agreement between the United Kingdom        |
 |     Car-Parrinello (UKCP) Consortium,           |
 |     Daresbury Laboratory and Accelrys, Inc.     |
 |                                                 |
 | Please cite                                     |
 |                                                 |
 |     "First principles methods using CASTEP"     |
 |                                                 |
 |         Zeitschrift fuer Kristallographie       |
 |           220(5-6) pp. 567-570 (2005)           |
 |                                                 |
 | S. J. Clark, M. D. Segall, C. J. Pickard,       |
 | P. J. Hasnip, M. J. Probert, K. Refson,         |
 | M. C. Payne                                     |
 |                                                 |
 |       in all publications arising from          |
 |              your use of CASTEP                 |
 |                                                 |
 +-------------------------------------------------+
 
 
 Compiled for linux_x86_64_cray-XT on Tue, 22 Mar 2022 15:42:52 +0000
 from code version b833c1ffcd7d+  Fri, 13 Jun 2014 17:24:31 +0100
 Compiler: Cray Fortran 11.0.4; Optimisation: intermediate
 MATHLIBS: LibSci (LAPACK version 3.6.1)
 FFT Lib : default
 Fundamental constants values: CODATA 2010
 
 Run started: Fri, 25 Mar 2022 19:12:25 +0000
 +-------------------------------------------------+
 |                                                 |
 |           N   N    M   M    RRRR                |
 |           NN  N    MM MM    R   R               |
 |           N N N    M M M    RRRR                |
 |           N  NN    M   M    R  R                |
 |           N   N    M   M    R   R               |
 |                                                 |
 +-------------------------------------------------+
 |                                                 |
 | Welcome to Materials Studio CASTEP-NMR          |
 |                                                 |
 | Authors:                                        |
 | J.R. Yates, C.J. Pickard, F. Mauri              |
 |                                                 |
 | Contributors:                                   |
 | T.F.G. Green, S.A. Joyce                        |
 |                                                 |
 | Copyright (c) 2004 - 2015                       |
 |                                                 |
 | Please cite the appropriate publications in all |
 | work arising from your use of CASTEP NMR.       |
 |                                                 |
 | For NMR Shielding Tensors cite:                 |
 |    "All-electron magnetic response with         |
 |    pseudopotentials: NMR chemical shifts",      |
 |    C. J. Pickard, F. Mauri;                     |
 |    Physical Review B63 245101 (2001), and       |
 |                                                 |
 |    "Calculation of NMR Chemical Shifts          |
 |    for extended systems using                   |
 |    Ultrasoft Pseudopotentials",                 |
 |    J. R. Yates, C. J. Pickard and F. Mauri      |
 |    Physical Review B76 024401 (2007)            |
 |                                                 |
 | For Electric Field Gradients cite:              |
 |   "Accurate First Principles Prediction of 17O  |
 |    NMR Parameters in SiO2: Assignment of the    |
 |    Zeolite Ferrierite Spectrum"                 |
 |    M. Profeta, F. Mauri and C. J. Pickard       |
 |    J. Amer. Chem. Soc. 125 541 (2003)           |
 |                                                 |
 | For Spin-Spin (J) Couplings cite:               |
 |   "A first principles theory of NMR J-coupling  |
 |   in solid-state systems"                       |
 |   S.A. Joyce, J.R. Yates, C.J. Pickard, F. Mauri|
 |   J. Chem. Phys. 127 204107 (2007)              |
 |                                                 |
 |   "Relativistic NMR J-coupling with ultrasoft   |
 |   pseudopotentials and the zeroth-order regular |
 |   approximation"                                |
 |   T.F.G. Green and J.R. Yates                   |
 |   J. Chem. Phys. 140 234106 (2014)              |
 |                                                 |
 +-------------------------------------------------+
 
 
 Atomic calculation performed for O: 1s2 2s2 2p4
 
 Converged in 44 iterations to an ae energy of -2040.855 eV
 
 
 Atomic calculation performed for O: 1s2 2s2 2p4
 
 Exceeded max iterations: converged to 0.000000062 eV
 
   ============================================================                
   | Pseudopotential Report - Date of generation 25-03-2022   |                
   ------------------------------------------------------------                
   | Element: O Ionic charge:  6.00 Level of theory: PBE      |                
   | Atomic Solver: ZORA (scalar)                             |                
   |                                                          |                
   |               Reference Electronic Structure             |                
   |         Orbital         Occupation         Energy        |                
   |            2s              2.000           -0.881        |                
   |            2p              4.000           -0.332        |                
   |                                                          |                
   |                 Pseudopotential Definition               |                
   |        Beta     l      e      Rc     scheme   norm       |                
   |          1      0   -0.881   1.100     qc      0         |                
   |          2      0    0.250   1.100     qc      0         |                
   |          3      1   -0.332   1.100     qc      0         |                
   |          4      1    0.250   1.100     qc      0         |                
   |         loc     2    0.000   1.100     pn      0         |                
   |                                                          |                
   | Augmentation charge Rinner = 0.769                       |                
   | Partial core correction Rc = 0.769                       |                
   ------------------------------------------------------------                
   | "2|1.1|15|18|20|20:21(qc=7)"                             |                
   ------------------------------------------------------------                
   |      Author: Chris J. Pickard, Cambridge University      |                
   ============================================================                
 
 Atomic calculation performed for Zr: 1s2 2s2 2p6 3s2 3p6 3d10 4s2 4p6 4d2 5s2
 
 Converged in 52 iterations to an ae energy of -97719.888 eV
 
 
 Atomic calculation performed for Zr: 1s2 2s2 2p6 3s2 3p6 3d10 4s2 4p6 4d2 5s2
 
 Exceeded max iterations: converged to 0.000000936 eV
 
 Warning: ion_atom_descreen_psp: negative charge density encountered
   ============================================================                
   | Pseudopotential Report - Date of generation 25-03-2022   |                
   ------------------------------------------------------------                
   | Element: Zr Ionic charge: 12.00 Level of theory: PBE     |                
   | Atomic Solver: ZORA (scalar)                             |                
   |                                                          |                
   |               Reference Electronic Structure             |                
   |         Orbital         Occupation         Energy        |                
   |            4s              2.000           -2.003        |                
   |            4p              6.000           -1.193        |                
   |            5s              2.000           -0.163        |                
   |            4d              2.000           -0.132        |                
   |                                                          |                
   |                 Pseudopotential Definition               |                
   |        Beta     l      e      Rc     scheme   norm       |                
   |          1      0   -2.003   2.105     qc      0         |                
   |          2      0   -0.163   2.105     qc      0         |                
   |          3      0    0.250   2.105     qc      0         |                
   |          4      1   -1.193   2.105     qc      0         |                
   |          5      1    0.250   2.105     qc      0         |                
   |          6      2   -0.132   2.105     qc      0         |                
   |          7      2    0.250   2.105     qc      0         |                
   |         loc     3    0.000   2.105     pn      0         |                
   |                                                          |                
   | Augmentation charge Rinner = 1.471                       |                
   | Partial core correction Rc = 1.471                       |                
   ------------------------------------------------------------                
   | "3|2.1|7|8|9|40U:50:41:42"                               |                
   ------------------------------------------------------------                
   |      Author: Chris J. Pickard, Cambridge University      |                
   ============================================================                
 
 Atomic calculation performed for Sn:
 1s2 2s2 2p6 3s2 3p6 3d10 4s2 4p6 4d10 5s2 5p2
 
 Converged in 58 iterations to an ae energy of -167539.320 eV
 
 
 Atomic calculation performed for Sn:
 1s2 2s2 2p6 3s2 3p6 3d10 4s2 4p6 4d10 5s2 5p2
 
 Exceeded max iterations: converged to -0.000000491 eV
 
   ============================================================                
   | Pseudopotential Report - Date of generation 25-03-2022   |                
   ------------------------------------------------------------                
   | Element: Sn Ionic charge: 14.00 Level of theory: PBE     |                
   | Atomic Solver: ZORA (scalar)                             |                
   |                                                          |                
   |               Reference Electronic Structure             |                
   |         Orbital         Occupation         Energy        |                
   |            4d             10.000           -0.950        |                
   |            5s              2.000           -0.388        |                
   |            5p              2.000           -0.136        |                
   |                                                          |                
   |                 Pseudopotential Definition               |                
   |        Beta     l      e      Rc     scheme   norm       |                
   |          1      0   -0.388   2.199     qc      0         |                
   |          2      0    0.250   2.199     qc      0         |                
   |          3      1   -0.136   2.199     qc      0         |                
   |          4      1    0.250   2.199     qc      0         |                
   |          5      2   -0.950   2.199     qc      0         |                
   |          6      2    0.250   2.199     qc      0         |                
   |         loc     3    0.000   2.199     pn      0         |                
   |                                                          |                
   | Augmentation charge Rinner = 1.537                       |                
   | Partial core correction Rc = 1.537                       |                
   ------------------------------------------------------------                
   | "3|2.2|7|8|9|50:51:42"                                   |                
   ------------------------------------------------------------                
   |      Author: Chris J. Pickard, Cambridge University      |                
   ============================================================                
 
 Atomic calculation performed for La:
 1s2 2s2 2p6 3s2 3p6 3d10 4s2 4p6 4d10 5s2 5p6 5d1 6s2
 
 Converged in 55 iterations to an ae energy of -230121.495 eV
 
 
 Atomic calculation performed for La:
 1s2 2s2 2p6 3s2 3p6 3d10 4s2 4p6 4d10 5s2 5p6 5d1 6s2
 
 Exceeded max iterations: converged to 0.000001134 eV
 
 Warning: ion_atom_descreen_psp: negative charge density encountered
   ============================================================                
   | Pseudopotential Report - Date of generation 25-03-2022   |                
   ------------------------------------------------------------                
   | Element: La Ionic charge: 11.00 Level of theory: PBE     |                
   | Atomic Solver: ZORA (scalar)                             |                
   |                                                          |                
   |               Reference Electronic Structure             |                
   |         Orbital         Occupation         Energy        |                
   |            5s              2.000           -1.430        |                
   |            5p              6.000           -0.823        |                
   |            6s              2.000           -0.135        |                
   |            5d              1.000           -0.114        |                
   |                                                          |                
   |                 Pseudopotential Definition               |                
   |        Beta     l      e      Rc     scheme   norm       |                
   |          1      0   -1.430   2.298     qc      0         |                
   |          2      0   -0.135   2.298     qc      0         |                
   |          3      0    0.250   2.298     qc      0         |                
   |          4      1   -0.823   2.298     qc      0         |                
   |          5      1    0.250   2.298     qc      0         |                
   |          6      2   -0.114   2.298     qc      0         |                
   |          7      2    0.250   2.298     qc      0         |                
   |         loc     2    0.000   2.298     pn      0         |                
   |                                                          |                
   | Augmentation charge Rinner = 1.606                       |                
   | Partial core correction Rc = 1.606                       |                
   ------------------------------------------------------------                
   | "2|2.3|5|6|7|50U:60:51:52(qc=4.5)"                       |                
   ------------------------------------------------------------                
   |      Author: Chris J. Pickard, Cambridge University      |                
   ============================================================                
 
 Pseudo atomic calculation performed for O 2s2 2p4
 
 Converged in 39 iterations to a total energy of -432.6554 eV
 
 
 Pseudo atomic calculation performed for Zr 4s2 4p6 4d2 5s2
 
 Converged in 38 iterations to a total energy of -1285.4931 eV
 
 
 Pseudo atomic calculation performed for Sn 4d10 5s2 5p2
 
 Converged in 48 iterations to a total energy of -2044.5413 eV
 
 
 Pseudo atomic calculation performed for La 5s2 5p6 5d1 6s2
 
 Converged in 34 iterations to a total energy of -968.0373 eV
 
 Calculation parallelised over 896 processes.
 Data is distributed by G-vector(64-way) and k-point(14-way)

 ************************************ Title ************************************
 nmr testing

 ***************************** General Parameters ******************************
  
 output verbosity                               : normal  (1)
 write checkpoint data to                       : 10.check
 type of calculation                            : Magnetic Resonance
 stress calculation                             : on
 density difference calculation                 : off
 electron localisation func (ELF) calculation   : off
 Hirshfeld analysis                             : off
 unlimited duration calculation
 timing information                             : on
 memory usage estimate                          : on
 write final potential to formatted file        : off
 write final density to formatted file          : off
 write BibTeX reference list                    : off
 write OTFG pseudopotential files               : on
 checkpoint writing                             : off
  
 output         length unit                     : A
 output           mass unit                     : amu
 output           time unit                     : ps
 output         charge unit                     : e
 output           spin unit                     : hbar/2
 output         energy unit                     : eV
 output          force unit                     : eV/A
 output       velocity unit                     : A/ps
 output       pressure unit                     : GPa
 output     inv_length unit                     : 1/A
 output      frequency unit                     : cm-1
 output force constant unit                     : eV/A**2
 output         volume unit                     : A**3
 output   IR intensity unit                     : (D/A)**2/amu
 output         dipole unit                     : D
 output         efield unit                     : eV/A/e
 output        entropy unit                     : J/mol/K
  
 wavefunctions paging                           : none
 random number generator seed                   : randomised (191225520)
 data distribution                              : optimal for this architecture
 optimization strategy                          : maximize speed(+++)

 *********************** Exchange-Correlation Parameters ***********************
  
 using functional                               : Perdew Burke Ernzerhof
 relativistic treatment                         : ZORA
 DFT+D: Semi-empirical dispersion correction    : off

 ************************* Pseudopotential Parameters **************************
  
 pseudopotential representation                 : reciprocal space
 <beta|phi> representation                      : reciprocal space
 spin-orbit coupling                            : off

 **************************** Basis Set Parameters *****************************
  
 plane wave basis set cut-off                   :   816.3416   eV
 size of standard grid                          :     1.7500
 size of   fine   gmax                          :    25.6161   1/A
 finite basis set correction                    : automatic
 number of sample energies                      :          3
           sample  spacing                      :     5.0000   eV

 **************************** Electronic Parameters ****************************
  
 number of  electrons                           :  718.0    
 net charge of system                           :  0.000    
 treating system as non-spin-polarized
 number of bands                                :        431

 ********************* Electronic Minimization Parameters **********************
  
 Method: Treating system as metallic with density mixing treatment of electrons,
         and number of  SD  steps               :          1
         and number of  CG  steps               :          4
  
 total energy / atom convergence tol.           : 0.1000E-08   eV
 eigen-energy convergence tolerance             : 0.2451E-09   eV
 max force / atom convergence tol.              : ignored
 convergence tolerance window                   :          3   cycles
 max. number of SCF cycles                      :         50
 number of fixed-spin iterations                :         10
 smearing scheme                                : Gaussian
 smearing width                                 : 0.2000       eV
 Fermi energy convergence tolerance             : 0.2721E-13   eV
 periodic dipole correction                     : NONE

 ************************** Density Mixing Parameters **************************
  
 density-mixing scheme                          : Broyden
 max. length of mixing history                  :         20
 charge density mixing amplitude                : 0.8000    
 cut-off energy for mixing                      :  816.3       eV

 *********************** Population Analysis Parameters ************************
  
 Population analysis with cutoff                :  3.000       A

 ************************ Magnetic Resonance Parameters ************************
  
 Magnetic Resonance Property                    : Chemical Shielding + EFG
 Position Operator Method                       : crystal
 max. number of MagRes CG steps                 :        250
 convergence tolerance window                   :          2   cycles
 energy convergence tolerance                   : 0.1000E-11   eV
 band convergence tolerance                     : 0.1000E-08   eV

 *******************************************************************************
  
 
                           -------------------------------
                                      Unit Cell
                           -------------------------------
        Real Lattice(A)                      Reciprocal Lattice(1/A)
  10.9019134   0.0065952   0.0037379        0.5763381  -0.0003486  -0.0001993
   0.0065932  10.9020627  -0.0033129       -0.0003487   0.5763302   0.0001750
   0.0037690  -0.0033083  10.9060213       -0.0001976   0.0001752   0.5761209
 
                       Lattice parameters(A)       Cell Angles
                    a =   10.901916          alpha =   90.034780
                    b =   10.902065          beta  =   89.960565
                    c =   10.906022          gamma =   89.930694
 
                       Current cell volume = 1296.216343       A**3
 
                           -------------------------------
                                     Cell Contents
                           -------------------------------
                         Total number of ions in cell =   88
                      Total number of species in cell =    4
                        Max number of any one species =   56
 
            xxxxxxxxxxxxxxxxxxxxxxxxxxxxxxxxxxxxxxxxxxxxxxxxxxxxxxxxxxxx
            x  Element    Atom        Fractional coordinates of atoms  x
            x            Number           u          v          w      x
            x----------------------------------------------------------x
            x  O            1         0.124892   0.124955   0.124701   x 
            x  O            2         0.624877   0.125091   0.625011   x 
            x  O            3         0.125160   0.624810   0.625177   x 
            x  O            4         0.625010   0.625060   0.124921   x 
            x  O            5         0.874927   0.374848   0.374937   x 
            x  O            6         0.875081   0.875245   0.875250   x 
            x  O            7         0.374828   0.374875   0.874878   x 
            x  O            8         0.375046   0.875122   0.374950   x 
            x  O            9         0.420519   0.126279   0.125497   x 
            x  O           10         0.329821   0.124704   0.624602   x 
            x  O           11         0.830393   0.625375   0.624474   x 
            x  O           12         0.920506   0.625958   0.125785   x 
            x  O           13         0.126202   0.420189   0.125373   x 
            x  O           14         0.623600   0.329161   0.125263   x 
            x  O           15         0.625524   0.830436   0.624828   x 
            x  O           16         0.124166   0.920745   0.623730   x 
            x  O           17         0.124458   0.123933   0.420527   x 
            x  O           18         0.124663   0.625321   0.330053   x 
            x  O           19         0.624939   0.624888   0.830196   x 
            x  O           20         0.625024   0.124996   0.920215   x 
            x  O           21         0.875300   0.669604   0.375516   x 
            x  O           22         0.873760   0.579464   0.874248   x 
            x  O           23         0.374714   0.079898   0.875422   x 
            x  O           24         0.375358   0.170537   0.374237   x 
            x  O           25         0.170465   0.375851   0.374235   x 
            x  O           26         0.080288   0.874675   0.374897   x 
            x  O           27         0.579393   0.873930   0.873822   x 
            x  O           28         0.670606   0.376336   0.874540   x 
            x  O           29         0.874965   0.375217   0.079623   x 
            x  O           30         0.374776   0.375008   0.169870   x 
            x  O           31         0.376025   0.874064   0.670855   x 
            x  O           32         0.874439   0.874706   0.580535   x 
            x  O           33         0.670175   0.874735   0.376324   x 
            x  O           34         0.079949   0.374811   0.875525   x 
            x  O           35         0.376303   0.670526   0.874584   x 
            x  O           36         0.875280   0.079825   0.375715   x 
            x  O           37         0.873947   0.375979   0.670855   x 
            x  O           38         0.374492   0.875267   0.079600   x 
            x  O           39         0.124720   0.329750   0.624616   x 
            x  O           40         0.625538   0.920315   0.124797   x 
            x  O           41         0.920686   0.123998   0.624077   x 
            x  O           42         0.329504   0.623629   0.125149   x 
            x  O           43         0.125062   0.624914   0.920188   x 
            x  O           44         0.624421   0.125604   0.329312   x 
            x  O           45         0.420122   0.625537   0.625270   x 
            x  O           46         0.830045   0.124621   0.125068   x 
            x  O           47         0.125058   0.125039   0.830030   x 
            x  O           48         0.625961   0.625429   0.420151   x 
            x  O           49         0.874916   0.170106   0.874854   x 
            x  O           50         0.373985   0.579611   0.374694   x 
            x  O           51         0.170089   0.875073   0.875268   x 
            x  O           52         0.579533   0.374498   0.374691   x 
            x  O           53         0.875768   0.874439   0.169998   x 
            x  O           54         0.375265   0.375252   0.580058   x 
            x  O           55         0.124174   0.829817   0.126019   x 
            x  O           56         0.625533   0.420021   0.625212   x 
            x  Zr           1         0.500105   0.500063   0.500152   x 
            x  Zr           2         0.249625   0.749604   0.000176   x 
            x  Zr           3         0.750611  -0.000258   0.250581   x 
            x  Zr           4        -0.000036   0.249925   0.750052   x 
            x  Zr           5         0.749897   0.250053  -0.000106   x 
            x  Zr           6         0.250094   0.000012   0.750097   x 
            x  Zr           7         0.499945   0.000040  -0.000048   x 
            x  Zr           8         0.250302   0.250200   0.499855   x 
            x  Zr           9         0.000168   0.500163   0.000133   x 
            x  Sn           1        -0.000388   0.750408   0.250626   x 
            x  Sn           2         0.749012   0.501046   0.749027   x 
            x  Sn           3         0.750110   0.750060   0.500078   x 
            x  Sn           4         0.249899   0.499987   0.249867   x 
            x  Sn           5         0.499362   0.250551   0.250304   x 
            x  Sn           6         0.501121   0.749080   0.749054   x 
            x  Sn           7        -0.000924  -0.001080   0.499106   x 
            x  La           1         0.000089   0.000071  -0.000002   x 
            x  La           2         0.749987   0.249901   0.500053   x 
            x  La           3         0.250008   0.499877   0.750165   x 
            x  La           4         0.499971   0.750142   0.249838   x 
            x  La           5         0.250209   0.750040   0.500299   x 
            x  La           6         0.749965   0.499753   0.249790   x 
            x  La           7         0.499980   0.249939   0.750195   x 
            x  La           8         0.000262   0.499536   0.500258   x 
            x  La           9         0.750103   0.750228   0.000163   x 
            x  La          10         0.250096   0.000193   0.249795   x 
            x  La          11         0.249943   0.249912  -0.000177   x 
            x  La          12         0.750028   0.000349   0.750313   x 
            x  La          13         0.499888   0.000274   0.499991   x 
            x  La          14         0.000303   0.750091   0.750343   x 
            x  La          15         0.000109   0.249915   0.249885   x 
            x  La          16         0.499904   0.499844  -0.000085   x 
            xxxxxxxxxxxxxxxxxxxxxxxxxxxxxxxxxxxxxxxxxxxxxxxxxxxxxxxxxxxx
 
 
                         No user defined ionic velocities
 
                           -------------------------------
                                   Details of Species
                           -------------------------------
 
                               Mass of species in AMU
                                    O   15.9994000
                                    Zr   91.2240000
                                    Sn  118.7100000
                                    La  138.9055000
 
                          Electric Quadrupole Moment (Barn)
                                    O   -0.0255800 Isotope 17
                                    Zr   -0.1760000 Isotope 91
                                    Sn    1.0000000 No Isotope Defined
                                    La    0.2000000 Isotope139
 
                          Files used for pseudopotentials:
                                    O 2|1.1|15|18|20|20:21(qc=7)
                                    Zr 3|2.1|7|8|9|40U:50:41:42
                                    Sn 3|2.2|7|8|9|50:51:42
                                    La 2|2.3|5|6|7|50U:60:51:52(qc=4.5)
 
                           -------------------------------
                              k-Points For BZ Sampling
                           -------------------------------
                       MP grid size for SCF calculation is  3  3  3
                            with an offset of   0.000  0.000  0.000
                       Number of kpoints used =   14
 
                           -------------------------------
                               Symmetry and Constraints
                           -------------------------------
 
                      Maximum deviation from symmetry =  0.00000         ANG
 
         There are no symmetry operations specified or generated for this cell
                      Number of ionic constraints     = 3
                      Point group of crystal =     1: C1, 1, 1
                      Space group of crystal =     1: P1, P 1
 
 
                         Centre of mass is constrained
             Set iprint > 1 for details of linear ionic constraints
 
                         Number of cell constraints= 0
                         Cell constraints are:  1 2 3 4 5 6
 
                         External pressure/stress (GPa)
                          0.00000   0.00000   0.00000
                                    0.00000   0.00000
                                              0.00000
  
+---------------- MEMORY AND SCRATCH DISK ESTIMATES PER PROCESS --------------+
|                                                     Memory          Disk    |
| Baseline code, static data and system overhead      843.0 MB         0.0 MB |
| BLAS internal memory storage                          0.0 MB         0.0 MB |
| Model and support data                              149.3 MB         0.0 MB |
| Electronic energy minimisation requirements          28.2 MB         0.0 MB |
| Force calculation requirements                        1.5 MB         0.0 MB |
| Stress calculation requirements                       1.8 MB         0.0 MB |
|                                               ----------------------------- |
| Approx. total storage required per process         1020.5 MB         0.0 MB |
|                                                                             |
| Requirements will fluctuate during execution and may exceed these estimates |
+-----------------------------------------------------------------------------+
Calculating finite basis set correction with  3 cut-off energies.
Calculating total energy with cut-off of  806.342eV.
------------------------------------------------------------------------ <-- SCF
SCF loop      Energy           Fermi           Energy gain       Timer   <-- SCF
                               energy          per atom          (sec)   <-- SCF
------------------------------------------------------------------------ <-- SCF
Initial  -5.53319007E+004  0.00000000E+000                        34.68  <-- SCF
      1  -6.37768146E+004  7.53143092E+000   9.59649310E+001      45.33  <-- SCF
      2  -6.63405551E+004  6.92210558E+000   2.91334142E+001      52.60  <-- SCF
      3  -6.64213356E+004  6.64527835E+000   9.17960405E-001      60.74  <-- SCF
      4  -6.64160546E+004  7.69703597E+000  -6.00109791E-002      70.20  <-- SCF
      5  -6.63106830E+004  7.18203369E+000  -1.19740496E+000      79.56  <-- SCF
      6  -6.63121703E+004  7.07707729E+000   1.69009549E-002      91.53  <-- SCF
      7  -6.63118767E+004  7.15640484E+000  -3.33548102E-003     101.32  <-- SCF
      8  -6.63119476E+004  7.16121222E+000   8.05519998E-004     114.55  <-- SCF
      9  -6.63119684E+004  7.16194441E+000   2.36571186E-004     125.56  <-- SCF
     10  -6.63119694E+004  7.15985390E+000   1.11107066E-005     136.07  <-- SCF
     11  -6.63119688E+004  7.16165330E+000  -6.80927815E-006     146.66  <-- SCF
     12  -6.63119691E+004  7.16185409E+000   3.45988177E-006     158.08  <-- SCF
     13  -6.63119692E+004  7.16158216E+000   3.69039328E-007     167.88  <-- SCF
     14  -6.63119691E+004  7.16143807E+000  -2.67617554E-007     177.65  <-- SCF
     15  -6.63119691E+004  7.16114255E+000  -7.01835442E-008     188.13  <-- SCF
     16  -6.63119691E+004  7.16098128E+000  -3.67348127E-009     197.28  <-- SCF
     17  -6.63119691E+004  7.16091335E+000  -1.05251904E-009     205.87  <-- SCF
     18  -6.63119691E+004  7.16085904E+000  -2.16550343E-010     212.91  <-- SCF
     19  -6.63119691E+004  7.16082759E+000   2.29908968E-010     219.53  <-- SCF
------------------------------------------------------------------------ <-- SCF
 
Final energy, E             =  -66311.96913432     eV
Final free energy (E-TS)    =  -66311.96913432     eV
(energies not corrected for finite basis set)
 
NB est. 0K energy (E-0.5TS)      =  -66311.96913432     eV
 
Calculating total energy with cut-off of  811.342eV.
------------------------------------------------------------------------ <-- SCF
SCF loop      Energy           Fermi           Energy gain       Timer   <-- SCF
                               energy          per atom          (sec)   <-- SCF
------------------------------------------------------------------------ <-- SCF
Initial  -6.63119691E+004  0.00000000E+000                       221.65  <-- SCF
      1  -6.63119716E+004  7.16082810E+000   2.81215464E-005     230.06  <-- SCF
      2  -6.63119716E+004  7.16082810E+000   2.01363695E-010     236.22  <-- SCF
      3  -6.63119716E+004  7.16082126E+000   1.65537269E-008     242.41  <-- SCF
      4  -6.63119716E+004  7.16082848E+000   5.28157848E-010     248.58  <-- SCF
      5  -6.63119716E+004  7.16082639E+000  -1.36398592E-010     254.72  <-- SCF
------------------------------------------------------------------------ <-- SCF
 
Final energy, E             =  -66311.97161052     eV
Final free energy (E-TS)    =  -66311.97161052     eV
(energies not corrected for finite basis set)
 
NB est. 0K energy (E-0.5TS)      =  -66311.97161052     eV
 
Calculating total energy with cut-off of  816.342eV.
------------------------------------------------------------------------ <-- SCF
SCF loop      Energy           Fermi           Energy gain       Timer   <-- SCF
                               energy          per atom          (sec)   <-- SCF
------------------------------------------------------------------------ <-- SCF
Initial  -6.63119716E+004  0.00000000E+000                       256.82  <-- SCF
      1  -6.63119745E+004  7.16082340E+000   3.31012737E-005     265.33  <-- SCF
      2  -6.63119745E+004  7.16082340E+000   2.03332335E-010     271.57  <-- SCF
      3  -6.63119745E+004  7.16082081E+000   2.03806214E-008     277.79  <-- SCF
      4  -6.63119745E+004  7.16082365E+000   6.62447184E-010     283.99  <-- SCF
      5  -6.63119745E+004  7.16082257E+000  -4.78098159E-011     290.18  <-- SCF
------------------------------------------------------------------------ <-- SCF
 
Final energy, E             =  -66311.97452529     eV
Final free energy (E-TS)    =  -66311.97452529     eV
(energies not corrected for finite basis set)
 
NB est. 0K energy (E-0.5TS)      =  -66311.97452529     eV
 
 For future reference: finite basis dEtot/dlog(Ecut) =      -0.438012eV
 Total energy corrected for finite basis set =  -66311.974539 eV
 
  =====================================================================
  +       Calculation of Nuclear Magnetic Resonance Parameters        +
  + ================================================================= +
 
  Starting Calculation of Electric Field Gradient Tensors         |<-- EFG
  +---------------- MEMORY AND SCRATCH DISK ESTIMATES PER PROCESS --------------+
  |                                                     Memory          Disk    |
  | Model and support data                              151.1 MB         0.0 MB |
  | NMR EFG calculation requirements                     27.3 MB         0.0 MB |
  |                                               ----------------------------- |
  | Approx. total storage required per process          178.3 MB         0.0 MB |
  |                                                                             |
  | Requirements will fluctuate during execution and may exceed these estimates |
  +-----------------------------------------------------------------------------+
  Total Time for EFG Tensors                      29.83 sec       |<-- EFG
 
  Starting Calculation of Chemical Shielding Tensors              |<-- NMR
  +---------------- MEMORY AND SCRATCH DISK ESTIMATES PER PROCESS --------------+
  |                                                     Memory          Disk    |
  | Model and support data                              151.1 MB         0.0 MB |
  | NMR chemical shift calculation requirements          90.3 MB         0.0 MB |
  |                                               ----------------------------- |
  | Approx. total storage required per process          241.3 MB         0.0 MB |
  |                                                                             |
  | Requirements will fluctuate during execution and may exceed these estimates |
  +-----------------------------------------------------------------------------+
  Starting k-point:   1 of   1                                    |<-- NMR
  Total Time for step 1 of 6:                    258.70 sec       |<-- NMR
  Total Time for step 2 of 6:                    258.60 sec       |<-- NMR
  Total Time for step 3 of 6:                    258.73 sec       |<-- NMR
  Total Time for step 4 of 6:                    256.36 sec       |<-- NMR
  Total Time for step 5 of 6:                    257.69 sec       |<-- NMR
  Total Time for step 6 of 6:                    258.03 sec       |<-- NMR
  Total Time for Chemical Shielding Tensors     2335.48 sec       |<-- NMR
 
  ========================================================================
  |           Chemical Shielding and Electric Field Gradient Tensors     |
  |----------------------------------------------------------------------|
  |     Nucleus                Shielding tensor             EFG Tensor   |
  |  Species       Ion    Iso(ppm)   Aniso(ppm)  Asym    Cq(MHz)    Eta  |
  |    O           1     -318.01     -14.20      0.98   6.033E-02   0.70 |
  |    O           2     -316.55       7.29      0.75   2.638E-02   0.50 |
  |    O           3     -317.99      -8.64      0.91  -2.670E-02   0.61 |
  |    O           4     -317.09      16.39      0.85  -5.559E-02   0.93 |
  |    O           5     -316.49     -12.13      0.16  -3.779E-02   0.83 |
  |    O           6     -318.42       7.51      0.81  -5.678E-02   0.49 |
  |    O           7     -317.80      13.82      0.95   4.238E-02   0.41 |
  |    O           8     -316.81      15.32      0.39  -4.703E-02   0.79 |
  |    O           9      -85.21      75.56      0.10  -3.229E+00   0.11 |
  |    O          10     -161.50     157.15      0.80   1.059E+00   0.80 |
  |    O          11      -10.62      59.05      0.67   3.847E+00   0.88 |
  |    O          12      -86.64      87.20      0.36  -3.168E+00   0.09 |
  |    O          13      -88.34      76.15      0.06  -3.237E+00   0.12 |
  |    O          14      -81.69      84.22      0.17  -3.183E+00   0.08 |
  |    O          15      -12.82      60.48      0.51   3.891E+00   0.84 |
  |    O          16      -81.82      81.03      0.14  -3.191E+00   0.08 |
  |    O          17      -86.01      78.49      0.27  -3.099E+00   0.08 |
  |    O          18       -3.49      68.41      0.65   3.846E+00   0.89 |
  |    O          19      -11.20      60.95      0.16   3.969E+00   0.80 |
  |    O          20     -161.68     155.00      0.81   1.091E+00   0.77 |
  |    O          21      -11.53      58.56      0.68   3.858E+00   0.88 |
  |    O          22      -84.18      82.10      0.19  -3.189E+00   0.07 |
  |    O          23     -163.86     159.42      0.77   1.045E+00   0.87 |
  |    O          24      -87.16      95.34      0.25  -3.194E+00   0.09 |
  |    O          25      -84.78      83.98      0.20  -3.199E+00   0.09 |
  |    O          26      -11.32      58.60      0.44   3.913E+00   0.84 |
  |    O          27      -83.82      75.42      0.01  -3.239E+00   0.09 |
  |    O          28      -85.94      81.75      0.16  -3.128E+00   0.09 |
  |    O          29     -160.28     151.26      0.81   1.105E+00   0.69 |
  |    O          30       -6.50      72.70      0.29   3.918E+00   0.81 |
  |    O          31      -83.54      85.34      0.27  -3.173E+00   0.09 |
  |    O          32      -12.21      59.97      0.67   3.832E+00   0.86 |
  |    O          33      -89.88      83.75      0.06  -3.184E+00   0.09 |
  |    O          34     -164.39     161.28      0.76   1.037E+00   0.88 |
  |    O          35      -86.35      81.07      0.14  -3.156E+00   0.09 |
  |    O          36      -91.79      95.27      0.18  -3.213E+00   0.10 |
  |    O          37      -82.98      82.86      0.30  -3.191E+00   0.10 |
  |    O          38     -160.37     150.07      0.80   1.103E+00   0.69 |
  |    O          39     -160.98     157.70      0.80   1.082E+00   0.77 |
  |    O          40     -160.94     150.85      0.79   1.085E+00   0.69 |
  |    O          41      -84.73      82.36      0.27  -3.171E+00   0.11 |
  |    O          42      -85.35      85.13      0.10  -3.196E+00   0.08 |
  |    O          43     -162.17     157.53      0.84   1.107E+00   0.75 |
  |    O          44      -88.07      90.54      0.36  -3.140E+00   0.08 |
  |    O          45      -90.62      92.60      0.23  -3.223E+00   0.09 |
  |    O          46     -164.14     154.10      0.77   1.034E+00   0.82 |
  |    O          47     -165.79     162.75      0.76   1.024E+00   0.98 |
  |    O          48      -89.74      82.79      0.20  -3.131E+00   0.07 |
  |    O          49     -163.30     160.59      0.78   1.062E+00   0.86 |
  |    O          50      -86.27      83.24      0.16  -3.172E+00   0.06 |
  |    O          51     -161.66     156.74      0.79   1.063E+00   0.77 |
  |    O          52      -88.48      94.31      0.31  -3.171E+00   0.07 |
  |    O          53      -93.44      86.48      0.15  -3.242E+00   0.12 |
  |    O          54     -165.74     156.78      0.81   1.047E+00   0.82 |
  |    O          55      -90.07      78.01      0.29  -3.210E+00   0.11 |
  |    O          56      -91.10      91.27      0.21  -3.208E+00   0.11 |
  |    Zr          1     1608.36    -119.03      0.12  -3.614E+01   0.07 |
  |    Zr          2     1627.05    -126.88      0.08  -3.743E+01   0.15 |
  |    Zr          3     1613.55    -119.48      0.06  -3.710E+01   0.04 |
  |    Zr          4     1631.96    -128.23      0.18  -3.863E+01   0.09 |
  |    Zr          5     1633.13    -125.31      0.09  -3.826E+01   0.09 |
  |    Zr          6     1633.19    -127.25      0.15  -3.829E+01   0.08 |
  |    Zr          7     1634.16    -128.21      0.20  -3.815E+01   0.16 |
  |    Zr          8     1627.27    -127.46      0.23  -3.747E+01   0.07 |
  |    Zr          9     1628.18    -126.37      0.19  -3.737E+01   0.18 |
  |    Sn          1     3255.79     -58.83      0.29   1.265E+02   0.06 |
  |    Sn          2     3249.33     -47.96      0.59   1.277E+02   0.15 |
  |    Sn          3     3252.22     -60.86      0.38   1.227E+02   0.08 |
  |    Sn          4     3258.23     -61.46      0.07   1.281E+02   0.16 |
  |    Sn          5     3251.16     -45.15      0.03   1.311E+02   0.08 |
  |    Sn          6     3248.92     -47.56      0.39   1.285E+02   0.13 |
  |    Sn          7     3250.22     -48.21      0.41   1.272E+02   0.17 |
  |    La          1     4749.93     869.81      0.05  -8.479E+01   0.08 |
  |    La          2     4654.79     647.33      0.01  -8.040E+01   0.04 |
  |    La          3     4751.85     871.10      0.04  -8.622E+01   0.07 |
  |    La          4     4712.21     754.56      0.03  -8.539E+01   0.08 |
  |    La          5     4604.60     516.82      0.08  -7.715E+01   0.10 |
  |    La          6     4663.12     653.32      0.08  -8.104E+01   0.14 |
  |    La          7     4752.30     873.08      0.04  -8.685E+01   0.07 |
  |    La          8     4604.55     507.22      0.08  -7.666E+01   0.09 |
  |    La          9     4654.18     651.78      0.11  -7.990E+01   0.17 |
  |    La         10     4656.92     658.60      0.10  -7.995E+01   0.15 |
  |    La         11     4696.96     758.90      0.05  -8.104E+01   0.09 |
  |    La         12     4654.32     629.51      0.01  -7.954E+01   0.03 |
  |    La         13     4655.53     656.31      0.09  -7.995E+01   0.15 |
  |    La         14     4658.92     624.85      0.00  -8.149E+01   0.03 |
  |    La         15     4707.72     761.28      0.04  -8.442E+01   0.09 |
  |    La         16     4599.64     549.34      0.11  -7.614E+01   0.21 |
  ========================================================================
 
 *********************** Forces ***********************
 *                                                    *
 *            Cartesian components (eV/A)             *
 * -------------------------------------------------- *
 *                   x            y            z      *
 *                                                    *
 * O         1      0.01976      0.00870     -0.00255 *
 * O         2      0.00300      0.00751      0.00695 *
 * O         3      0.01104     -0.00036      0.01056 *
 * O         4     -0.00400     -0.01331     -0.01367 *
 * O         5      0.00093     -0.01417      0.00464 *
 * O         6     -0.00681      0.00311     -0.00270 *
 * O         7     -0.00103     -0.00531      0.00491 *
 * O         8     -0.00927      0.01258      0.00422 *
 * O         9      0.00723      0.00401     -0.01803 *
 * O        10      0.01077     -0.01484     -0.01245 *
 * O        11      0.01872     -0.00001      0.00526 *
 * O        12      0.00915     -0.01217     -0.00554 *
 * O        13     -0.00479      0.00575     -0.01667 *
 * O        14     -0.02115     -0.00549     -0.01994 *
 * O        15      0.00617      0.01080      0.01055 *
 * O        16      0.01474     -0.00019     -0.00032 *
 * O        17      0.01198     -0.00330      0.00079 *
 * O        18      0.00049     -0.00119      0.02390 *
 * O        19     -0.00200     -0.00032     -0.00199 *
 * O        20     -0.01083      0.00054     -0.02166 *
 * O        21      0.01713     -0.01548      0.01446 *
 * O        22     -0.00128      0.00083      0.00701 *
 * O        23     -0.01072      0.00999     -0.00025 *
 * O        24     -0.01748      0.01502     -0.00497 *
 * O        25      0.00704     -0.01284      0.00738 *
 * O        26      0.01164     -0.00196      0.01490 *
 * O        27     -0.00489      0.00769     -0.00022 *
 * O        28     -0.00089      0.01509      0.01397 *
 * O        29     -0.00789      0.01074      0.01619 *
 * O        30     -0.00369      0.00307     -0.01415 *
 * O        31     -0.00633      0.00795      0.01331 *
 * O        32      0.00959      0.00546      0.02257 *
 * O        33      0.00938      0.02261      0.01194 *
 * O        34      0.00472     -0.01759     -0.00364 *
 * O        35      0.01542      0.00217      0.01611 *
 * O        36     -0.00046     -0.00728      0.01603 *
 * O        37      0.00926     -0.01327      0.01480 *
 * O        38     -0.00863      0.01201      0.01461 *
 * O        39     -0.02082      0.00810     -0.00897 *
 * O        40      0.00162     -0.01069     -0.01389 *
 * O        41      0.00889      0.00801      0.00619 *
 * O        42     -0.00529     -0.01332     -0.02005 *
 * O        43     -0.00407     -0.00759     -0.02022 *
 * O        44     -0.00424      0.00690     -0.00959 *
 * O        45      0.01217      0.00565     -0.00547 *
 * O        46      0.00495      0.00904      0.00258 *
 * O        47     -0.00069      0.00679     -0.01398 *
 * O        48     -0.00125     -0.01546      0.00265 *
 * O        49     -0.00255      0.00351     -0.02491 *
 * O        50     -0.00964     -0.00139      0.00509 *
 * O        51     -0.00610      0.00201     -0.01229 *
 * O        52     -0.00913     -0.00307     -0.00800 *
 * O        53     -0.00169      0.00269      0.02816 *
 * O        54     -0.00807     -0.01051      0.01343 *
 * O        55      0.01892     -0.01518      0.00794 *
 * O        56     -0.00023      0.00707     -0.00882 *
 * Zr        1      0.00286      0.01086     -0.00401 *
 * Zr        2     -0.01330     -0.00693      0.00489 *
 * Zr        3      0.01585     -0.01513      0.00015 *
 * Zr        4     -0.00870     -0.01703      0.00772 *
 * Zr        5      0.00295      0.00152      0.00804 *
 * Zr        6     -0.00790     -0.00627      0.00346 *
 * Zr        7      0.00540     -0.01812      0.00993 *
 * Zr        8     -0.00023      0.00237     -0.01014 *
 * Zr        9     -0.00657      0.00692      0.00707 *
 * Sn        1     -0.01765      0.00663     -0.00025 *
 * Sn        2     -0.01230      0.03180     -0.02868 *
 * Sn        3     -0.00442     -0.00872     -0.01343 *
 * Sn        4     -0.00879      0.01076      0.00602 *
 * Sn        5     -0.01177      0.01160      0.01139 *
 * Sn        6      0.02477     -0.01476     -0.02421 *
 * Sn        7     -0.02307     -0.02804     -0.02411 *
 * La        1     -0.01318     -0.01476      0.00523 *
 * La        2      0.00398      0.01273     -0.01201 *
 * La        3     -0.00839      0.02217     -0.01465 *
 * La        4      0.00974      0.00277      0.00430 *
 * La        5      0.00467     -0.00502     -0.01315 *
 * La        6      0.00904      0.01396      0.01056 *
 * La        7      0.01531     -0.00447     -0.01330 *
 * La        8     -0.00643      0.01001     -0.01200 *
 * La        9     -0.00265      0.00045      0.02373 *
 * La       10      0.00914     -0.02655      0.00972 *
 * La       11     -0.00703      0.00061      0.00604 *
 * La       12      0.00248     -0.00825     -0.00017 *
 * La       13      0.00429     -0.01579     -0.01060 *
 * La       14     -0.00491     -0.00283     -0.00359 *
 * La       15     -0.01630      0.01365      0.00905 *
 * La       16      0.01424      0.02476      0.02087 *
 *                                                    *
 ******************************************************
 
 ***************** Stress Tensor *****************
 *                                               *
 *          Cartesian components (GPa)           *
 * --------------------------------------------- *
 *             x             y             z     *
 *                                               *
 *  x     -0.006233      0.010769      0.003808  *
 *  y      0.010769     -0.005578     -0.041349  *
 *  z      0.003808     -0.041349      0.004556  *
 *                                               *
 *  Pressure:    0.0024                          *
 *                                               *
 *************************************************
 
 Pseudo atomic calculation performed for O 2s2 2p4
 
 Converged in 39 iterations to a total energy of -432.6554 eV
 
 
 Pseudo atomic calculation performed for Zr 4s2 4p6 4d2 5s2
 
 Converged in 38 iterations to a total energy of -1285.4931 eV
 
 
 Pseudo atomic calculation performed for Sn 4d10 5s2 5p2
 
 Converged in 48 iterations to a total energy of -2044.5413 eV
 
 
 Pseudo atomic calculation performed for La 5s2 5p6 5d1 6s2
 
 Converged in 34 iterations to a total energy of -968.0373 eV
 
Charge spilling parameter for spin component 1 = 0.24%
 
     Atomic Populations (Mulliken)
     -----------------------------
Species   Ion     s      p      d      f     Total  Charge (e)
==============================================================
  O        1     1.87   5.00   0.00   0.00   6.87    -0.87
  O        2     1.87   5.00   0.00   0.00   6.87    -0.87
  O        3     1.87   5.00   0.00   0.00   6.87    -0.87
  O        4     1.87   5.00   0.00   0.00   6.87    -0.87
  O        5     1.87   5.00   0.00   0.00   6.87    -0.87
  O        6     1.87   5.00   0.00   0.00   6.87    -0.87
  O        7     1.87   5.00   0.00   0.00   6.87    -0.87
  O        8     1.87   5.00   0.00   0.00   6.87    -0.87
  O        9     1.87   4.99   0.00   0.00   6.85    -0.85
  O       10     1.86   4.95   0.00   0.00   6.80    -0.80
  O       11     1.88   5.02   0.00   0.00   6.91    -0.91
  O       12     1.87   4.99   0.00   0.00   6.86    -0.86
  O       13     1.87   4.99   0.00   0.00   6.86    -0.86
  O       14     1.87   4.99   0.00   0.00   6.85    -0.85
  O       15     1.88   5.02   0.00   0.00   6.91    -0.91
  O       16     1.87   4.99   0.00   0.00   6.86    -0.86
  O       17     1.87   4.99   0.00   0.00   6.85    -0.85
  O       18     1.88   5.02   0.00   0.00   6.91    -0.91
  O       19     1.88   5.03   0.00   0.00   6.91    -0.91
  O       20     1.86   4.95   0.00   0.00   6.80    -0.80
  O       21     1.88   5.02   0.00   0.00   6.91    -0.91
  O       22     1.87   4.99   0.00   0.00   6.85    -0.85
  O       23     1.86   4.94   0.00   0.00   6.80    -0.80
  O       24     1.87   4.99   0.00   0.00   6.86    -0.86
  O       25     1.87   4.99   0.00   0.00   6.86    -0.86
  O       26     1.88   5.02   0.00   0.00   6.91    -0.91
  O       27     1.87   4.99   0.00   0.00   6.85    -0.85
  O       28     1.87   4.99   0.00   0.00   6.85    -0.85
  O       29     1.86   4.95   0.00   0.00   6.80    -0.80
  O       30     1.88   5.02   0.00   0.00   6.91    -0.91
  O       31     1.87   4.99   0.00   0.00   6.85    -0.85
  O       32     1.88   5.02   0.00   0.00   6.91    -0.91
  O       33     1.87   4.99   0.00   0.00   6.86    -0.86
  O       34     1.86   4.94   0.00   0.00   6.80    -0.80
  O       35     1.87   4.99   0.00   0.00   6.85    -0.85
  O       36     1.87   4.99   0.00   0.00   6.86    -0.86
  O       37     1.87   4.99   0.00   0.00   6.86    -0.86
  O       38     1.86   4.95   0.00   0.00   6.80    -0.80
  O       39     1.86   4.95   0.00   0.00   6.80    -0.80
  O       40     1.86   4.95   0.00   0.00   6.80    -0.80
  O       41     1.87   4.99   0.00   0.00   6.85    -0.85
  O       42     1.87   4.99   0.00   0.00   6.86    -0.86
  O       43     1.86   4.95   0.00   0.00   6.80    -0.80
  O       44     1.87   4.99   0.00   0.00   6.85    -0.85
  O       45     1.87   4.99   0.00   0.00   6.86    -0.86
  O       46     1.86   4.94   0.00   0.00   6.80    -0.80
  O       47     1.86   4.94   0.00   0.00   6.80    -0.80
  O       48     1.87   4.99   0.00   0.00   6.86    -0.86
  O       49     1.86   4.95   0.00   0.00   6.80    -0.80
  O       50     1.87   4.99   0.00   0.00   6.86    -0.86
  O       51     1.86   4.95   0.00   0.00   6.80    -0.80
  O       52     1.87   4.99   0.00   0.00   6.86    -0.86
  O       53     1.87   4.99   0.00   0.00   6.86    -0.86
  O       54     1.86   4.95   0.00   0.00   6.80    -0.80
  O       55     1.87   4.99   0.00   0.00   6.86    -0.86
  O       56     1.87   4.99   0.00   0.00   6.86    -0.86
  Zr       1     2.37   6.51   1.92   0.00  10.80     1.20
  Zr       2     2.37   6.48   1.92   0.00  10.78     1.22
  Zr       3     2.37   6.50   1.92   0.00  10.79     1.21
  Zr       4     2.37   6.48   1.93   0.00  10.78     1.22
  Zr       5     2.37   6.47   1.93   0.00  10.77     1.23
  Zr       6     2.37   6.48   1.93   0.00  10.77     1.23
  Zr       7     2.37   6.48   1.93   0.00  10.77     1.23
  Zr       8     2.37   6.48   1.92   0.00  10.78     1.22
  Zr       9     2.37   6.48   1.92   0.00  10.78     1.22
  Sn       1     1.05   1.31  10.00   0.00  12.36     1.64
  Sn       2     1.05   1.31  10.00   0.00  12.36     1.64
  Sn       3     1.05   1.32  10.00   0.00  12.36     1.64
  Sn       4     1.05   1.31  10.00   0.00  12.36     1.64
  Sn       5     1.05   1.31  10.00   0.00  12.36     1.64
  Sn       6     1.05   1.31  10.00   0.00  12.36     1.64
  Sn       7     1.05   1.31  10.00   0.00  12.36     1.64
  La       1     2.04   6.14   1.19   0.00   9.37     1.63
  La       2     2.07   6.17   1.19   0.00   9.44     1.56
  La       3     2.03   6.15   1.19   0.00   9.38     1.62
  La       4     2.04   6.17   1.19   0.00   9.40     1.60
  La       5     2.10   6.19   1.19   0.00   9.48     1.52
  La       6     2.07   6.18   1.19   0.00   9.44     1.56
  La       7     2.01   6.15   1.19   0.00   9.36     1.64
  La       8     2.11   6.19   1.19   0.00   9.49     1.51
  La       9     2.08   6.17   1.19   0.00   9.44     1.56
  La      10     2.06   6.17   1.19   0.00   9.43     1.57
  La      11     2.05   6.16   1.19   0.00   9.40     1.60
  La      12     2.07   6.18   1.19   0.00   9.44     1.56
  La      13     2.08   6.17   1.19   0.00   9.44     1.56
  La      14     2.06   6.19   1.19   0.00   9.44     1.56
  La      15     2.03   6.16   1.19   0.00   9.38     1.62
  La      16     2.09   6.18   1.19   0.00   9.47     1.53
==============================================================
 
            Bond              Population      Length (A)
============================================================
         O 36 -- Sn 7              0.35        2.10033
         O 24 -- Sn 5              0.34        2.10171
         O 45 -- Sn 6              0.35        2.10204
         O 56 -- Sn 2              0.35        2.10232
         O 13 -- Sn 4              0.35        2.10303
         O 53 -- Sn 1              0.34        2.10314
         O 42 -- Sn 4              0.35        2.10324
         O 25 -- Sn 4              0.35        2.10348
         O 19 -- Sn 2              0.34        2.10442
         O 9  -- Sn 5              0.35        2.10458
         O 33 -- Sn 3              0.34        2.10463
         O 14 -- Sn 5              0.35        2.10483
         O 52 -- Sn 5              0.34        2.10533
         O 37 -- Sn 2              0.34        2.10560
         O 27 -- Sn 6              0.35        2.10583
         O 16 -- Sn 7              0.35        2.10584
         O 19 -- Sn 6              0.34        2.10643
         O 12 -- Sn 1              0.34        2.10725
         O 41 -- Sn 7              0.34        2.10729
         O 50 -- Sn 4              0.35        2.10732
         O 55 -- Sn 1              0.34        2.10763
         O 31 -- Sn 6              0.34        2.10770
         O 48 -- Sn 3              0.34        2.10773
         O 26 -- Sn 7              0.34        2.10876
         O 26 -- Sn 1              0.34        2.10905
         O 22 -- Sn 2              0.35        2.10937
         O 30 -- Sn 5              0.33        2.11043
         O 44 -- Sn 5              0.34        2.11076
         O 11 -- Sn 3              0.34        2.11076
         O 28 -- Sn 2              0.34        2.11101
         O 15 -- Sn 3              0.33        2.11111
         O 43 -- Zr 2              0.41        2.11132
         O 32 -- Sn 3              0.34        2.11148
         O 35 -- Sn 6              0.34        2.11211
         O 15 -- Sn 6              0.33        2.11267
         O 30 -- Sn 4              0.33        2.11270
         O 34 -- Zr 9              0.43        2.11285
         O 17 -- Sn 7              0.34        2.11297
         O 18 -- Sn 1              0.34        2.11356
         O 23 -- Zr 7              0.42        2.11366
         O 54 -- Zr 1              0.42        2.11366
         O 43 -- Zr 9              0.41        2.11379
         O 47 -- Zr 6              0.43        2.11387
         O 21 -- Sn 1              0.34        2.11416
         O 49 -- Zr 4              0.42        2.11424
         O 49 -- Zr 5              0.43        2.11426
         O 21 -- Sn 3              0.33        2.11439
         O 39 -- Zr 8              0.43        2.11448
         O 20 -- Zr 5              0.42        2.11468
         O 47 -- Zr 4              0.43        2.11494
         O 11 -- Sn 2              0.33        2.11496
         O 32 -- Sn 7              0.33        2.11496
         O 29 -- Zr 9              0.42        2.11529
         O 10 -- Zr 8              0.43        2.11550
         O 20 -- Zr 7              0.42        2.11560
         O 36 -- Zr 3              0.44        2.11563
         O 23 -- Zr 6              0.43        2.11575
         O 51 -- Zr 2              0.43        2.11652
         O 38 -- Zr 7              0.42        2.11655
         O 10 -- Zr 6              0.42        2.11663
         O 39 -- Zr 4              0.42        2.11669
         O 46 -- Zr 3              0.43        2.11676
         O 29 -- Zr 5              0.42        2.11704
         O 24 -- Zr 8              0.44        2.11730
         O 51 -- Zr 6              0.42        2.11733
         O 54 -- Zr 8              0.42        2.11763
         O 38 -- Zr 2              0.42        2.11777
         O 40 -- Zr 7              0.43        2.11781
         O 45 -- Zr 1              0.44        2.11819
         O 18 -- Sn 4              0.32        2.11856
         O 34 -- Zr 4              0.43        2.11871
         O 52 -- Zr 1              0.45        2.11877
         O 53 -- Zr 3              0.44        2.11958
         O 56 -- Zr 1              0.44        2.11958
         O 40 -- Zr 3              0.43        2.12012
         O 46 -- Zr 5              0.43        2.12087
         O 14 -- Zr 5              0.45        2.12182
         O 42 -- Zr 2              0.44        2.12208
         O 44 -- Zr 3              0.45        2.12251
         O 12 -- Zr 9              0.45        2.12277
         O 31 -- Zr 6              0.45        2.12354
         O 33 -- Zr 3              0.44        2.12377
         O 9  -- Zr 7              0.45        2.12410
         O 55 -- Zr 2              0.45        2.12412
         O 25 -- Zr 8              0.44        2.12416
         O 28 -- Zr 5              0.45        2.12431
         O 13 -- Zr 9              0.45        2.12481
         O 50 -- Zr 1              0.45        2.12505
         O 48 -- Zr 1              0.44        2.12512
         O 35 -- Zr 2              0.45        2.12596
         O 37 -- Zr 4              0.45        2.12614
         O 41 -- Zr 4              0.45        2.12638
         O 27 -- Zr 7              0.45        2.12739
         O 17 -- Zr 8              0.45        2.12848
         O 22 -- Zr 9              0.45        2.12899
         O 16 -- Zr 6              0.45        2.12953
         O 7  -- La 7              0.19        2.35723
         O 7  -- La 3              0.19        2.35778
         O 1  -- La 1              0.18        2.35781
         O 1  -- La 15             0.20        2.35822
         O 2  -- La 7              0.18        2.35823
         O 8  -- La 4              0.19        2.35878
         O 4  -- La 4              0.19        2.35892
         O 6  -- La 1              0.17        2.35902
         O 3  -- La 3              0.18        2.35925
         O 5  -- La 15             0.17        2.35972
         O 7  -- La 11             0.17        2.36023
         O 6  -- La 14             0.19        2.36044
         O 2  -- La 13             0.18        2.36056
         O 3  -- La 14             0.17        2.36058
         O 2  -- La 2              0.18        2.36076
         O 5  -- La 6              0.18        2.36080
         O 1  -- La 11             0.17        2.36081
         O 6  -- La 9              0.18        2.36095
         O 1  -- La 10             0.18        2.36109
         O 6  -- La 12             0.17        2.36130
         O 4  -- La 6              0.18        2.36153
         O 5  -- La 2              0.17        2.36155
         O 4  -- La 9              0.17        2.36165
         O 8  -- La 10             0.16        2.36182
         O 8  -- La 13             0.17        2.36187
         O 2  -- La 12             0.17        2.36194
         O 7  -- La 16             0.18        2.36218
         O 3  -- La 8              0.17        2.36224
         O 3  -- La 5              0.17        2.36252
         O 8  -- La 5              0.17        2.36322
         O 4  -- La 16             0.15        2.36372
         O 5  -- La 8              0.16        2.36383
         O 39 -- La 8              0.14        2.66574
         O 10 -- La 13             0.13        2.66699
         O 23 -- La 11             0.11        2.66735
         O 40 -- La 9              0.12        2.66806
         O 42 -- La 16             0.17        2.66942
         O 34 -- La 11             0.11        2.66943
         O 20 -- La 12             0.12        2.66950
         O 33 -- La 13             0.18        2.66961
         O 38 -- La 10             0.12        2.66990
         O 46 -- La 1              0.12        2.67003
         O 13 -- La 11             0.16        2.67004
         O 49 -- La 12             0.13        2.67007
         O 51 -- La 1              0.12        2.67029
         O 36 -- La 2              0.18        2.67037
         O 45 -- La 5              0.18        2.67038
         O 56 -- La 2              0.18        2.67059
         O 32 -- La 12             0.23        2.67081
         O 29 -- La 6              0.14        2.67087
         O 28 -- La 16             0.18        2.67097
         O 11 -- La 8              0.23        2.67115
         O 50 -- La 5              0.18        2.67169
         O 25 -- La 8              0.17        2.67180
         O 47 -- La 11             0.11        2.67225
         O 43 -- La 3              0.13        2.67226
         O 54 -- La 3              0.13        2.67234
         O 21 -- La 8              0.25        2.67280
         O 43 -- La 14             0.13        2.67309
         O 48 -- La 6              0.18        2.67316
         O 35 -- La 16             0.18        2.67323
         O 53 -- La 9              0.18        2.67326
         O 51 -- La 14             0.13        2.67326
         O 19 -- La 16             0.22        2.67333
         O 26 -- La 5              0.24        2.67357
         O 14 -- La 16             0.18        2.67385
         O 17 -- La 10             0.18        2.67431
         O 16 -- La 5              0.19        2.67431
         O 15 -- La 12             0.24        2.67437
         O 47 -- La 1              0.13        2.67441
         O 30 -- La 16             0.23        2.67447
         O 9  -- La 11             0.17        2.67453
         O 20 -- La 7              0.13        2.67471
         O 53 -- La 1              0.18        2.67477
         O 30 -- La 11             0.23        2.67512
         O 22 -- La 9              0.19        2.67530
         O 15 -- La 13             0.23        2.67535
         O 54 -- La 7              0.12        2.67582
         O 32 -- La 14             0.24        2.67586
         O 49 -- La 1              0.12        2.67596
         O 24 -- La 10             0.18        2.67604
         O 55 -- La 10             0.18        2.67631
         O 12 -- La 9              0.17        2.67642
         O 46 -- La 15             0.13        2.67649
         O 55 -- La 1              0.17        2.67651
         O 26 -- La 10             0.22        2.67694
         O 52 -- La 2              0.18        2.67716
         O 24 -- La 13             0.17        2.67753
         O 18 -- La 8              0.25        2.67762
         O 19 -- La 9              0.23        2.67771
         O 34 -- La 3              0.14        2.67776
         O 11 -- La 14             0.24        2.67798
         O 23 -- La 7              0.13        2.67831
         O 18 -- La 5              0.24        2.67850
         O 31 -- La 5              0.18        2.67853
         O 41 -- La 2              0.19        2.67886
         O 56 -- La 7              0.18        2.67887
         O 45 -- La 3              0.18        2.67889
         O 37 -- La 8              0.18        2.67889
         O 52 -- La 6              0.19        2.67906
         O 29 -- La 15             0.12        2.67908
         O 41 -- La 12             0.18        2.67933
         O 44 -- La 13             0.19        2.67940
         O 27 -- La 12             0.18        2.67945
         O 36 -- La 15             0.17        2.67963
         O 27 -- La 9              0.18        2.67966
         O 25 -- La 15             0.18        2.67970
         O 38 -- La 4              0.14        2.67978
         O 21 -- La 6              0.24        2.67986
         O 40 -- La 4              0.15        2.67996
         O 44 -- La 2              0.19        2.68004
         O 12 -- La 6              0.19        2.68026
         O 9  -- La 10             0.17        2.68031
         O 39 -- La 3              0.13        2.68070
         O 13 -- La 15             0.18        2.68073
         O 48 -- La 4              0.19        2.68092
         O 10 -- La 7              0.12        2.68120
         O 17 -- La 15             0.18        2.68136
         O 37 -- La 2              0.19        2.68148
         O 31 -- La 13             0.19        2.68201
         O 22 -- La 14             0.19        2.68257
         O 16 -- La 14             0.18        2.68295
         O 33 -- La 4              0.19        2.68297
         O 50 -- La 4              0.20        2.68397
         O 35 -- La 3              0.19        2.68400
         O 28 -- La 7              0.18        2.68429
         O 14 -- La 6              0.18        2.68455
         O 42 -- La 4              0.19        2.68565
         O 53 -- O 55             -0.06        2.79200
         O 12 -- O 53             -0.06        2.79351
         O 37 -- O 56             -0.06        2.79493
         O 31 -- O 45             -0.06        2.79540
         O 36 -- O 41             -0.06        2.79545
         O 15 -- O 33             -0.06        2.79565
         O 13 -- O 30             -0.06        2.79656
         O 19 -- O 28             -0.06        2.79697
         O 19 -- O 35             -0.06        2.79713
         O 30 -- O 42             -0.06        2.79766
         O 9  -- O 24             -0.06        2.79827
         O 9  -- O 30             -0.06        2.79835
         O 26 -- O 55             -0.06        2.79846
         O 15 -- O 32             -0.05        2.79854
         O 19 -- O 22             -0.06        2.79878
         O 13 -- O 25             -0.06        2.79922
         O 19 -- O 27             -0.06        2.79989
         O 14 -- O 30             -0.06        2.79994
         O 44 -- O 52             -0.06        2.80037
         O 11 -- O 21             -0.05        2.80081
         O 16 -- O 26             -0.06        2.80114
         O 24 -- O 44             -0.06        2.80131
         O 15 -- O 27             -0.06        2.80141
         O 33 -- O 48             -0.06        2.80223
         O 11 -- O 32             -0.05        2.80238
         O 17 -- O 36             -0.06        2.80254
         O 35 -- O 45             -0.06        2.80318
         O 18 -- O 26             -0.05        2.80325
         O 21 -- O 48             -0.06        2.80350
         O 18 -- O 21             -0.05        2.80428
         O 28 -- O 56             -0.06        2.80447
         O 17 -- O 26             -0.06        2.80460
         O 32 -- O 41             -0.06        2.80503
         O 14 -- O 52             -0.06        2.80552
         O 15 -- O 31             -0.06        2.80560
         O 18 -- O 50             -0.06        2.80575
         O 11 -- O 37             -0.06        2.80586
         O 42 -- O 50             -0.06        2.80626
         O 18 -- O 25             -0.06        2.80663
         O 12 -- O 21             -0.05        2.80770
         O 16 -- O 32             -0.06        2.80903
         O 23 -- O 47             -0.04        2.80963
         O 11 -- O 22             -0.05        2.81021
         O 34 -- O 47             -0.04        2.81029
         O 47 -- O 51             -0.03        2.81239
         O 20 -- O 49             -0.03        2.81249
         O 47 -- O 49             -0.03        2.81277
         O 34 -- O 43             -0.03        2.81348
         O 43 -- O 51             -0.03        2.81485
         O 13 -- O 34             -0.03        2.81507
         O 46 -- O 53             -0.03        2.81541
         O 45 -- O 54             -0.03        2.81597
         O 54 -- O 56             -0.03        2.81597
         O 20 -- O 23             -0.03        2.81635
         O 46 -- O 49             -0.03        2.81641
         O 40 -- O 53             -0.03        2.81672
         O 9  -- O 23             -0.03        2.81854
         O 39 -- O 54             -0.03        2.81862
         O 10 -- O 54             -0.03        2.81905
         O 38 -- O 55             -0.03        2.81969
         O 10 -- O 24             -0.03        2.81993
         O 29 -- O 46             -0.03        2.82027
         O 36 -- O 46             -0.03        2.82081
         O 25 -- O 39             -0.03        2.82103
         O 52 -- O 56             -0.03        2.82196
         O 34 -- O 39             -0.03        2.82198
         O 10 -- O 23             -0.03        2.82201
         O 45 -- O 50             -0.03        2.82360
         O 51 -- O 55             -0.03        2.82363
         O 10 -- O 31             -0.03        2.82372
         O 12 -- O 29             -0.03        2.82390
         O 37 -- O 39             -0.03        2.82436
         O 41 -- O 49             -0.03        2.82447
         O 38 -- O 40             -0.03        2.82480
         O 36 -- O 44             -0.03        2.82551
         O 48 -- O 52             -0.03        2.82628
         O 35 -- O 42             -0.03        2.82659
         O 33 -- O 44             -0.03        2.82677
         O 9  -- O 38             -0.03        2.82720
         O 13 -- O 29             -0.03        2.82774
         O 17 -- O 24             -0.03        2.82782
         O 20 -- O 27             -0.03        2.82797
         O 35 -- O 43             -0.03        2.82817
         O 27 -- O 40             -0.03        2.82870
         O 14 -- O 28             -0.03        2.82921
         O 22 -- O 43             -0.03        2.82971
         O 20 -- O 28             -0.03        2.82983
         O 14 -- O 29             -0.03        2.83040
         O 33 -- O 40             -0.03        2.83047
         O 38 -- O 42             -0.03        2.83161
         O 16 -- O 51             -0.03        2.83321
         O 12 -- O 22             -0.03        2.83602
         O 48 -- O 50             -0.03        2.83659
         O 17 -- O 25             -0.03        2.83795
         O 37 -- O 41             -0.03        2.83921
         O 16 -- O 31             -0.03        2.83922
============================================================
 
Initialisation time =     24.87 s
Calculation time    =   2647.06 s
Finalisation time   =      0.12 s
Total time          =   2672.05 s
Peak Memory Use     = 3585668 kB
  
Overall parallel efficiency rating: Good (70%)                                  
  
Data was distributed by:-
G-vector (64-way); efficiency rating: Good (73%)                                
k-point (14-way); efficiency rating: Excellent (94%)                            
