 +-------------------------------------------------+
 |                                                 |
 |      CCC   AA    SSS  TTTTT  EEEEE  PPPP        |
 |     C     A  A  S       T    E      P   P       |
 |     C     AAAA   SS     T    EEE    PPPP        |
 |     C     A  A     S    T    E      P           |
 |      CCC  A  A  SSS     T    EEEEE  P           |
 |                                                 |
 +-------------------------------------------------+
 |                                                 |
 | Welcome to Academic Release CASTEP version 16.1 |          
 | Ab Initio Total Energy Program                  |
 |                                                 |
 | Authors:                                        |
 | M. Segall, M. Probert, C. Pickard, P. Hasnip,   |
 | S. Clark, K. Refson, J. R. Yates, M. Payne      |
 |                                                 |
 | Contributors:                                   |
 | P. Lindan, P. Haynes, J. White, V. Milman,      |
 | N. Govind, M. Gibson, P. Tulip, V. Cocula,      |
 | B. Montanari, D. Quigley, M. Glover,            |
 | L. Bernasconi, A. Perlov, M. Plummer,           |
 | E. McNellis, J. Meyer, J. Gale, D. Jochym       |
 | J. Aarons, B. Walker, R. Gillen, D. Jones       |
 | T. Green, I. J. Bush, C. J. Armstrong,          |
 | E. J. Higgins, E. L. Brown, M. S. McFly         |
 |                                                 |
 | Copyright (c) 2000 - 2015                       |
 |                                                 |
 |     Distributed under the terms of an           |
 |     Agreement between the United Kingdom        |
 |     Car-Parrinello (UKCP) Consortium,           |
 |     Daresbury Laboratory and Accelrys, Inc.     |
 |                                                 |
 | Please cite                                     |
 |                                                 |
 |     "First principles methods using CASTEP"     |
 |                                                 |
 |         Zeitschrift fuer Kristallographie       |
 |           220(5-6) pp. 567-570 (2005)           |
 |                                                 |
 | S. J. Clark, M. D. Segall, C. J. Pickard,       |
 | P. J. Hasnip, M. J. Probert, K. Refson,         |
 | M. C. Payne                                     |
 |                                                 |
 |       in all publications arising from          |
 |              your use of CASTEP                 |
 |                                                 |
 +-------------------------------------------------+
 
 
 Compiled for linux_x86_64_cray-XT on Tue, 22 Mar 2022 15:42:52 +0000
 from code version b833c1ffcd7d+  Fri, 13 Jun 2014 17:24:31 +0100
 Compiler: Cray Fortran 11.0.4; Optimisation: intermediate
 MATHLIBS: LibSci (LAPACK version 3.6.1)
 FFT Lib : default
 Fundamental constants values: CODATA 2010
 
 Run started: Fri, 25 Mar 2022 19:12:24 +0000
 +-------------------------------------------------+
 |                                                 |
 |           N   N    M   M    RRRR                |
 |           NN  N    MM MM    R   R               |
 |           N N N    M M M    RRRR                |
 |           N  NN    M   M    R  R                |
 |           N   N    M   M    R   R               |
 |                                                 |
 +-------------------------------------------------+
 |                                                 |
 | Welcome to Materials Studio CASTEP-NMR          |
 |                                                 |
 | Authors:                                        |
 | J.R. Yates, C.J. Pickard, F. Mauri              |
 |                                                 |
 | Contributors:                                   |
 | T.F.G. Green, S.A. Joyce                        |
 |                                                 |
 | Copyright (c) 2004 - 2015                       |
 |                                                 |
 | Please cite the appropriate publications in all |
 | work arising from your use of CASTEP NMR.       |
 |                                                 |
 | For NMR Shielding Tensors cite:                 |
 |    "All-electron magnetic response with         |
 |    pseudopotentials: NMR chemical shifts",      |
 |    C. J. Pickard, F. Mauri;                     |
 |    Physical Review B63 245101 (2001), and       |
 |                                                 |
 |    "Calculation of NMR Chemical Shifts          |
 |    for extended systems using                   |
 |    Ultrasoft Pseudopotentials",                 |
 |    J. R. Yates, C. J. Pickard and F. Mauri      |
 |    Physical Review B76 024401 (2007)            |
 |                                                 |
 | For Electric Field Gradients cite:              |
 |   "Accurate First Principles Prediction of 17O  |
 |    NMR Parameters in SiO2: Assignment of the    |
 |    Zeolite Ferrierite Spectrum"                 |
 |    M. Profeta, F. Mauri and C. J. Pickard       |
 |    J. Amer. Chem. Soc. 125 541 (2003)           |
 |                                                 |
 | For Spin-Spin (J) Couplings cite:               |
 |   "A first principles theory of NMR J-coupling  |
 |   in solid-state systems"                       |
 |   S.A. Joyce, J.R. Yates, C.J. Pickard, F. Mauri|
 |   J. Chem. Phys. 127 204107 (2007)              |
 |                                                 |
 |   "Relativistic NMR J-coupling with ultrasoft   |
 |   pseudopotentials and the zeroth-order regular |
 |   approximation"                                |
 |   T.F.G. Green and J.R. Yates                   |
 |   J. Chem. Phys. 140 234106 (2014)              |
 |                                                 |
 +-------------------------------------------------+
 
 
 Atomic calculation performed for O: 1s2 2s2 2p4
 
 Converged in 44 iterations to an ae energy of -2040.855 eV
 
 
 Atomic calculation performed for O: 1s2 2s2 2p4
 
 Exceeded max iterations: converged to 0.000000062 eV
 
   ============================================================                
   | Pseudopotential Report - Date of generation 25-03-2022   |                
   ------------------------------------------------------------                
   | Element: O Ionic charge:  6.00 Level of theory: PBE      |                
   | Atomic Solver: ZORA (scalar)                             |                
   |                                                          |                
   |               Reference Electronic Structure             |                
   |         Orbital         Occupation         Energy        |                
   |            2s              2.000           -0.881        |                
   |            2p              4.000           -0.332        |                
   |                                                          |                
   |                 Pseudopotential Definition               |                
   |        Beta     l      e      Rc     scheme   norm       |                
   |          1      0   -0.881   1.100     qc      0         |                
   |          2      0    0.250   1.100     qc      0         |                
   |          3      1   -0.332   1.100     qc      0         |                
   |          4      1    0.250   1.100     qc      0         |                
   |         loc     2    0.000   1.100     pn      0         |                
   |                                                          |                
   | Augmentation charge Rinner = 0.769                       |                
   | Partial core correction Rc = 0.769                       |                
   ------------------------------------------------------------                
   | "2|1.1|15|18|20|20:21(qc=7)"                             |                
   ------------------------------------------------------------                
   |      Author: Chris J. Pickard, Cambridge University      |                
   ============================================================                
 
 Atomic calculation performed for Zr: 1s2 2s2 2p6 3s2 3p6 3d10 4s2 4p6 4d2 5s2
 
 Converged in 52 iterations to an ae energy of -97719.888 eV
 
 
 Atomic calculation performed for Zr: 1s2 2s2 2p6 3s2 3p6 3d10 4s2 4p6 4d2 5s2
 
 Exceeded max iterations: converged to 0.000000936 eV
 
 Warning: ion_atom_descreen_psp: negative charge density encountered
   ============================================================                
   | Pseudopotential Report - Date of generation 25-03-2022   |                
   ------------------------------------------------------------                
   | Element: Zr Ionic charge: 12.00 Level of theory: PBE     |                
   | Atomic Solver: ZORA (scalar)                             |                
   |                                                          |                
   |               Reference Electronic Structure             |                
   |         Orbital         Occupation         Energy        |                
   |            4s              2.000           -2.003        |                
   |            4p              6.000           -1.193        |                
   |            5s              2.000           -0.163        |                
   |            4d              2.000           -0.132        |                
   |                                                          |                
   |                 Pseudopotential Definition               |                
   |        Beta     l      e      Rc     scheme   norm       |                
   |          1      0   -2.003   2.105     qc      0         |                
   |          2      0   -0.163   2.105     qc      0         |                
   |          3      0    0.250   2.105     qc      0         |                
   |          4      1   -1.193   2.105     qc      0         |                
   |          5      1    0.250   2.105     qc      0         |                
   |          6      2   -0.132   2.105     qc      0         |                
   |          7      2    0.250   2.105     qc      0         |                
   |         loc     3    0.000   2.105     pn      0         |                
   |                                                          |                
   | Augmentation charge Rinner = 1.471                       |                
   | Partial core correction Rc = 1.471                       |                
   ------------------------------------------------------------                
   | "3|2.1|7|8|9|40U:50:41:42"                               |                
   ------------------------------------------------------------                
   |      Author: Chris J. Pickard, Cambridge University      |                
   ============================================================                
 
 Atomic calculation performed for Sn:
 1s2 2s2 2p6 3s2 3p6 3d10 4s2 4p6 4d10 5s2 5p2
 
 Converged in 58 iterations to an ae energy of -167539.320 eV
 
 
 Atomic calculation performed for Sn:
 1s2 2s2 2p6 3s2 3p6 3d10 4s2 4p6 4d10 5s2 5p2
 
 Exceeded max iterations: converged to -0.000000491 eV
 
   ============================================================                
   | Pseudopotential Report - Date of generation 25-03-2022   |                
   ------------------------------------------------------------                
   | Element: Sn Ionic charge: 14.00 Level of theory: PBE     |                
   | Atomic Solver: ZORA (scalar)                             |                
   |                                                          |                
   |               Reference Electronic Structure             |                
   |         Orbital         Occupation         Energy        |                
   |            4d             10.000           -0.950        |                
   |            5s              2.000           -0.388        |                
   |            5p              2.000           -0.136        |                
   |                                                          |                
   |                 Pseudopotential Definition               |                
   |        Beta     l      e      Rc     scheme   norm       |                
   |          1      0   -0.388   2.199     qc      0         |                
   |          2      0    0.250   2.199     qc      0         |                
   |          3      1   -0.136   2.199     qc      0         |                
   |          4      1    0.250   2.199     qc      0         |                
   |          5      2   -0.950   2.199     qc      0         |                
   |          6      2    0.250   2.199     qc      0         |                
   |         loc     3    0.000   2.199     pn      0         |                
   |                                                          |                
   | Augmentation charge Rinner = 1.537                       |                
   | Partial core correction Rc = 1.537                       |                
   ------------------------------------------------------------                
   | "3|2.2|7|8|9|50:51:42"                                   |                
   ------------------------------------------------------------                
   |      Author: Chris J. Pickard, Cambridge University      |                
   ============================================================                
 
 Atomic calculation performed for La:
 1s2 2s2 2p6 3s2 3p6 3d10 4s2 4p6 4d10 5s2 5p6 5d1 6s2
 
 Converged in 55 iterations to an ae energy of -230121.495 eV
 
 
 Atomic calculation performed for La:
 1s2 2s2 2p6 3s2 3p6 3d10 4s2 4p6 4d10 5s2 5p6 5d1 6s2
 
 Exceeded max iterations: converged to 0.000001134 eV
 
 Warning: ion_atom_descreen_psp: negative charge density encountered
   ============================================================                
   | Pseudopotential Report - Date of generation 25-03-2022   |                
   ------------------------------------------------------------                
   | Element: La Ionic charge: 11.00 Level of theory: PBE     |                
   | Atomic Solver: ZORA (scalar)                             |                
   |                                                          |                
   |               Reference Electronic Structure             |                
   |         Orbital         Occupation         Energy        |                
   |            5s              2.000           -1.430        |                
   |            5p              6.000           -0.823        |                
   |            6s              2.000           -0.135        |                
   |            5d              1.000           -0.114        |                
   |                                                          |                
   |                 Pseudopotential Definition               |                
   |        Beta     l      e      Rc     scheme   norm       |                
   |          1      0   -1.430   2.298     qc      0         |                
   |          2      0   -0.135   2.298     qc      0         |                
   |          3      0    0.250   2.298     qc      0         |                
   |          4      1   -0.823   2.298     qc      0         |                
   |          5      1    0.250   2.298     qc      0         |                
   |          6      2   -0.114   2.298     qc      0         |                
   |          7      2    0.250   2.298     qc      0         |                
   |         loc     2    0.000   2.298     pn      0         |                
   |                                                          |                
   | Augmentation charge Rinner = 1.606                       |                
   | Partial core correction Rc = 1.606                       |                
   ------------------------------------------------------------                
   | "2|2.3|5|6|7|50U:60:51:52(qc=4.5)"                       |                
   ------------------------------------------------------------                
   |      Author: Chris J. Pickard, Cambridge University      |                
   ============================================================                
 
 Pseudo atomic calculation performed for O 2s2 2p4
 
 Converged in 39 iterations to a total energy of -432.6554 eV
 
 
 Pseudo atomic calculation performed for Zr 4s2 4p6 4d2 5s2
 
 Converged in 38 iterations to a total energy of -1285.4931 eV
 
 
 Pseudo atomic calculation performed for Sn 4d10 5s2 5p2
 
 Converged in 48 iterations to a total energy of -2044.5413 eV
 
 
 Pseudo atomic calculation performed for La 5s2 5p6 5d1 6s2
 
 Converged in 34 iterations to a total energy of -968.0373 eV
 
 Calculation parallelised over 896 processes.
 Data is distributed by G-vector(64-way) and k-point(14-way)

 ************************************ Title ************************************
 nmr testing

 ***************************** General Parameters ******************************
  
 output verbosity                               : normal  (1)
 write checkpoint data to                       : 23.check
 type of calculation                            : Magnetic Resonance
 stress calculation                             : on
 density difference calculation                 : off
 electron localisation func (ELF) calculation   : off
 Hirshfeld analysis                             : off
 unlimited duration calculation
 timing information                             : on
 memory usage estimate                          : on
 write final potential to formatted file        : off
 write final density to formatted file          : off
 write BibTeX reference list                    : off
 write OTFG pseudopotential files               : on
 checkpoint writing                             : off
  
 output         length unit                     : A
 output           mass unit                     : amu
 output           time unit                     : ps
 output         charge unit                     : e
 output           spin unit                     : hbar/2
 output         energy unit                     : eV
 output          force unit                     : eV/A
 output       velocity unit                     : A/ps
 output       pressure unit                     : GPa
 output     inv_length unit                     : 1/A
 output      frequency unit                     : cm-1
 output force constant unit                     : eV/A**2
 output         volume unit                     : A**3
 output   IR intensity unit                     : (D/A)**2/amu
 output         dipole unit                     : D
 output         efield unit                     : eV/A/e
 output        entropy unit                     : J/mol/K
  
 wavefunctions paging                           : none
 random number generator seed                   : randomised (191225070)
 data distribution                              : optimal for this architecture
 optimization strategy                          : maximize speed(+++)

 *********************** Exchange-Correlation Parameters ***********************
  
 using functional                               : Perdew Burke Ernzerhof
 relativistic treatment                         : ZORA
 DFT+D: Semi-empirical dispersion correction    : off

 ************************* Pseudopotential Parameters **************************
  
 pseudopotential representation                 : reciprocal space
 <beta|phi> representation                      : reciprocal space
 spin-orbit coupling                            : off

 **************************** Basis Set Parameters *****************************
  
 plane wave basis set cut-off                   :   816.3416   eV
 size of standard grid                          :     1.7500
 size of   fine   gmax                          :    25.6161   1/A
 finite basis set correction                    : automatic
 number of sample energies                      :          3
           sample  spacing                      :     5.0000   eV

 **************************** Electronic Parameters ****************************
  
 number of  electrons                           :  718.0    
 net charge of system                           :  0.000    
 treating system as non-spin-polarized
 number of bands                                :        431

 ********************* Electronic Minimization Parameters **********************
  
 Method: Treating system as metallic with density mixing treatment of electrons,
         and number of  SD  steps               :          1
         and number of  CG  steps               :          4
  
 total energy / atom convergence tol.           : 0.1000E-08   eV
 eigen-energy convergence tolerance             : 0.2451E-09   eV
 max force / atom convergence tol.              : ignored
 convergence tolerance window                   :          3   cycles
 max. number of SCF cycles                      :         50
 number of fixed-spin iterations                :         10
 smearing scheme                                : Gaussian
 smearing width                                 : 0.2000       eV
 Fermi energy convergence tolerance             : 0.2721E-13   eV
 periodic dipole correction                     : NONE

 ************************** Density Mixing Parameters **************************
  
 density-mixing scheme                          : Broyden
 max. length of mixing history                  :         20
 charge density mixing amplitude                : 0.8000    
 cut-off energy for mixing                      :  816.3       eV

 *********************** Population Analysis Parameters ************************
  
 Population analysis with cutoff                :  3.000       A

 ************************ Magnetic Resonance Parameters ************************
  
 Magnetic Resonance Property                    : Chemical Shielding + EFG
 Position Operator Method                       : crystal
 max. number of MagRes CG steps                 :        250
 convergence tolerance window                   :          2   cycles
 energy convergence tolerance                   : 0.1000E-11   eV
 band convergence tolerance                     : 0.1000E-08   eV

 *******************************************************************************
  
 
                           -------------------------------
                                      Unit Cell
                           -------------------------------
        Real Lattice(A)                      Reciprocal Lattice(1/A)
  10.9059777   0.0010447  -0.0010247        0.5761231  -0.0000547   0.0000537
   0.0010361  10.9021500  -0.0102295       -0.0000552   0.5763259   0.0005408
  -0.0010170  -0.0102304  10.9022629        0.0000541   0.0005408   0.5763199
 
                       Lattice parameters(A)       Cell Angles
                    a =   10.905978          alpha =   90.107526
                    b =   10.902155          beta  =   90.010733
                    c =   10.902268          gamma =   89.989061
 
                       Current cell volume = 1296.262674       A**3
 
                           -------------------------------
                                     Cell Contents
                           -------------------------------
                         Total number of ions in cell =   88
                      Total number of species in cell =    4
                        Max number of any one species =   56
 
            xxxxxxxxxxxxxxxxxxxxxxxxxxxxxxxxxxxxxxxxxxxxxxxxxxxxxxxxxxxx
            x  Element    Atom        Fractional coordinates of atoms  x
            x            Number           u          v          w      x
            x----------------------------------------------------------x
            x  O            1         0.124942   0.125092   0.124856   x 
            x  O            2         0.625057   0.125075   0.624897   x 
            x  O            3         0.125219   0.624863   0.624925   x 
            x  O            4         0.624884   0.624984   0.125280   x 
            x  O            5         0.874950   0.374893   0.375061   x 
            x  O            6         0.875116   0.875292   0.874972   x 
            x  O            7         0.374769   0.374918   0.874861   x 
            x  O            8         0.375062   0.874872   0.375067   x 
            x  O            9         0.420023   0.124893   0.124837   x 
            x  O           10         0.329863   0.124732   0.624883   x 
            x  O           11         0.829687   0.624494   0.625906   x 
            x  O           12         0.920054   0.625105   0.124608   x 
            x  O           13         0.124676   0.420473   0.123966   x 
            x  O           14         0.624687   0.329407   0.125526   x 
            x  O           15         0.624750   0.829722   0.626218   x 
            x  O           16         0.124846   0.920655   0.623581   x 
            x  O           17         0.124713   0.123600   0.420710   x 
            x  O           18         0.124504   0.626209   0.329631   x 
            x  O           19         0.625595   0.625532   0.830139   x 
            x  O           20         0.624417   0.124161   0.920297   x 
            x  O           21         0.875560   0.670308   0.374185   x 
            x  O           22         0.874415   0.580139   0.875512   x 
            x  O           23         0.375526   0.079649   0.876256   x 
            x  O           24         0.375303   0.170747   0.373540   x 
            x  O           25         0.170100   0.374897   0.374675   x 
            x  O           26         0.079973   0.874858   0.374877   x 
            x  O           27         0.579944   0.874621   0.875094   x 
            x  O           28         0.670326   0.375867   0.874497   x 
            x  O           29         0.875256   0.376186   0.079678   x 
            x  O           30         0.375160   0.373541   0.170639   x 
            x  O           31         0.375324   0.873983   0.670490   x 
            x  O           32         0.875305   0.875527   0.579413   x 
            x  O           33         0.669973   0.875243   0.375235   x 
            x  O           34         0.079540   0.375812   0.875905   x 
            x  O           35         0.375606   0.670304   0.874232   x 
            x  O           36         0.875127   0.079603   0.375789   x 
            x  O           37         0.873880   0.375389   0.670464   x 
            x  O           38         0.375090   0.876301   0.079664   x 
            x  O           39         0.124992   0.329893   0.625215   x 
            x  O           40         0.624809   0.920480   0.123645   x 
            x  O           41         0.920774   0.124559   0.623934   x 
            x  O           42         0.329843   0.624897   0.124662   x 
            x  O           43         0.124382   0.624225   0.920306   x 
            x  O           44         0.624877   0.125804   0.329604   x 
            x  O           45         0.420480   0.625862   0.625784   x 
            x  O           46         0.830039   0.125213   0.125255   x 
            x  O           47         0.125651   0.125609   0.830016   x 
            x  O           48         0.625612   0.624600   0.420084   x 
            x  O           49         0.874385   0.170047   0.874614   x 
            x  O           50         0.374338   0.579934   0.375574   x 
            x  O           51         0.170138   0.874655   0.874921   x 
            x  O           52         0.579226   0.373890   0.374517   x 
            x  O           53         0.875192   0.873651   0.170451   x 
            x  O           54         0.375008   0.375213   0.579864   x 
            x  O           55         0.124909   0.829694   0.126287   x 
            x  O           56         0.626119   0.420459   0.625375   x 
            x  Zr           1         0.500187   0.500072   0.500180   x 
            x  Zr           2         0.250011   0.749970   0.000020   x 
            x  Zr           3         0.749995   0.000015   0.250170   x 
            x  Zr           4        -0.000201   0.250428   0.750187   x 
            x  Zr           5         0.750113   0.249921  -0.000027   x 
            x  Zr           6         0.250404  -0.000224   0.750234   x 
            x  Zr           7         0.249993   0.249874   0.499876   x 
            x  Zr           8         0.749850   0.749903   0.500027   x 
            x  Zr           9         0.249641   0.500148   0.249562   x 
            x  Sn           1         0.000047   0.749931   0.250059   x 
            x  Sn           2         0.499962   0.000019  -0.000042   x 
            x  Sn           3         0.749989   0.500140   0.750182   x 
            x  Sn           4        -0.000168   0.500169  -0.000012   x 
            x  Sn           5         0.500439   0.249328   0.249340   x 
            x  Sn           6         0.500108   0.749962   0.750132   x 
            x  Sn           7        -0.000380  -0.000608   0.499382   x 
            x  La           1         0.000173   0.000022   0.000005   x 
            x  La           2         0.750029   0.250043   0.500068   x 
            x  La           3         0.250013   0.499947   0.749908   x 
            x  La           4         0.499827   0.749975   0.250059   x 
            x  La           5         0.250179   0.749931   0.500071   x 
            x  La           6         0.749857   0.499845   0.250108   x 
            x  La           7         0.499944   0.250057   0.749916   x 
            x  La           8         0.000031   0.499954   0.500058   x 
            x  La           9         0.749999   0.750140   0.000136   x 
            x  La          10         0.249991   0.000112   0.250127   x 
            x  La          11         0.249838   0.250069  -0.000073   x 
            x  La          12         0.750165   0.000115   0.749798   x 
            x  La          13         0.499774   0.000141   0.500074   x 
            x  La          14         0.000076   0.750104   0.749808   x 
            x  La          15         0.000160   0.250043   0.250116   x 
            x  La          16         0.499958   0.499824   0.000075   x 
            xxxxxxxxxxxxxxxxxxxxxxxxxxxxxxxxxxxxxxxxxxxxxxxxxxxxxxxxxxxx
 
 
                         No user defined ionic velocities
 
                           -------------------------------
                                   Details of Species
                           -------------------------------
 
                               Mass of species in AMU
                                    O   15.9994000
                                    Zr   91.2240000
                                    Sn  118.7100000
                                    La  138.9055000
 
                          Electric Quadrupole Moment (Barn)
                                    O   -0.0255800 Isotope 17
                                    Zr   -0.1760000 Isotope 91
                                    Sn    1.0000000 No Isotope Defined
                                    La    0.2000000 Isotope139
 
                          Files used for pseudopotentials:
                                    O 2|1.1|15|18|20|20:21(qc=7)
                                    Zr 3|2.1|7|8|9|40U:50:41:42
                                    Sn 3|2.2|7|8|9|50:51:42
                                    La 2|2.3|5|6|7|50U:60:51:52(qc=4.5)
 
                           -------------------------------
                              k-Points For BZ Sampling
                           -------------------------------
                       MP grid size for SCF calculation is  3  3  3
                            with an offset of   0.000  0.000  0.000
                       Number of kpoints used =   14
 
                           -------------------------------
                               Symmetry and Constraints
                           -------------------------------
 
                      Maximum deviation from symmetry =  0.00000         ANG
 
         There are no symmetry operations specified or generated for this cell
                      Number of ionic constraints     = 3
                      Point group of crystal =     1: C1, 1, 1
                      Space group of crystal =     1: P1, P 1
 
 
                         Centre of mass is constrained
             Set iprint > 1 for details of linear ionic constraints
 
                         Number of cell constraints= 0
                         Cell constraints are:  1 2 3 4 5 6
 
                         External pressure/stress (GPa)
                          0.00000   0.00000   0.00000
                                    0.00000   0.00000
                                              0.00000
  
+---------------- MEMORY AND SCRATCH DISK ESTIMATES PER PROCESS --------------+
|                                                     Memory          Disk    |
| Baseline code, static data and system overhead      839.0 MB         0.0 MB |
| BLAS internal memory storage                          0.0 MB         0.0 MB |
| Model and support data                              149.4 MB         0.0 MB |
| Electronic energy minimisation requirements          28.2 MB         0.0 MB |
| Force calculation requirements                        1.5 MB         0.0 MB |
| Stress calculation requirements                       1.8 MB         0.0 MB |
|                                               ----------------------------- |
| Approx. total storage required per process         1016.6 MB         0.0 MB |
|                                                                             |
| Requirements will fluctuate during execution and may exceed these estimates |
+-----------------------------------------------------------------------------+
Calculating finite basis set correction with  3 cut-off energies.
Calculating total energy with cut-off of  806.342eV.
------------------------------------------------------------------------ <-- SCF
SCF loop      Energy           Fermi           Energy gain       Timer   <-- SCF
                               energy          per atom          (sec)   <-- SCF
------------------------------------------------------------------------ <-- SCF
Initial  -5.53176433E+004  0.00000000E+000                        38.24  <-- SCF
      1  -6.37763739E+004  7.51027221E+000   9.61219381E+001      48.99  <-- SCF
      2  -6.63403319E+004  7.02352130E+000   2.91358868E+001      56.37  <-- SCF
      3  -6.64212798E+004  6.68052176E+000   9.19861575E-001      64.61  <-- SCF
      4  -6.64158183E+004  7.68225654E+000  -6.20624454E-002      74.21  <-- SCF
      5  -6.63105766E+004  7.18888321E+000  -1.19592820E+000      83.63  <-- SCF
      6  -6.63121141E+004  7.11507708E+000   1.74716886E-002      95.77  <-- SCF
      7  -6.63118122E+004  7.18255052E+000  -3.43056902E-003     105.63  <-- SCF
      8  -6.63118850E+004  7.19094625E+000   8.27548096E-004     118.77  <-- SCF
      9  -6.63119068E+004  7.19604582E+000   2.47522545E-004     130.16  <-- SCF
     10  -6.63119076E+004  7.19481680E+000   9.48007017E-006     140.79  <-- SCF
     11  -6.63119073E+004  7.19725582E+000  -4.37412146E-006     151.45  <-- SCF
     12  -6.63119076E+004  7.19814276E+000   4.31084376E-006     162.95  <-- SCF
     13  -6.63119077E+004  7.19825934E+000   4.75709918E-007     173.04  <-- SCF
     14  -6.63119077E+004  7.19833123E+000  -1.00476547E-008     182.72  <-- SCF
     15  -6.63119077E+004  7.19830367E+000   1.90212759E-009     193.14  <-- SCF
     16  -6.63119077E+004  7.19824954E+000  -4.09884801E-009     201.81  <-- SCF
     17  -6.63119077E+004  7.19820751E+000  -1.16121606E-009     210.03  <-- SCF
     18  -6.63119077E+004  7.19817862E+000  -5.81311114E-010     216.76  <-- SCF
     19  -6.63119077E+004  7.19815850E+000   1.04759744E-010     223.56  <-- SCF
------------------------------------------------------------------------ <-- SCF
 
Final energy, E             =  -66311.90767456     eV
Final free energy (E-TS)    =  -66311.90767456     eV
(energies not corrected for finite basis set)
 
NB est. 0K energy (E-0.5TS)      =  -66311.90767456     eV
 
Calculating total energy with cut-off of  811.342eV.
------------------------------------------------------------------------ <-- SCF
SCF loop      Energy           Fermi           Energy gain       Timer   <-- SCF
                               energy          per atom          (sec)   <-- SCF
------------------------------------------------------------------------ <-- SCF
Initial  -6.63119077E+004  0.00000000E+000                       225.69  <-- SCF
      1  -6.63119102E+004  7.19814563E+000   2.81648980E-005     234.23  <-- SCF
      2  -6.63119102E+004  7.19814563E+000   2.04176037E-010     240.61  <-- SCF
      3  -6.63119102E+004  7.19814308E+000   1.65469773E-008     246.81  <-- SCF
      4  -6.63119102E+004  7.19815260E+000   5.34485618E-010     253.02  <-- SCF
      5  -6.63119102E+004  7.19815115E+000  -6.55275712E-011     259.27  <-- SCF
------------------------------------------------------------------------ <-- SCF
 
Final energy, E             =  -66311.91015458     eV
Final free energy (E-TS)    =  -66311.91015458     eV
(energies not corrected for finite basis set)
 
NB est. 0K energy (E-0.5TS)      =  -66311.91015458     eV
 
Calculating total energy with cut-off of  816.342eV.
------------------------------------------------------------------------ <-- SCF
SCF loop      Energy           Fermi           Energy gain       Timer   <-- SCF
                               energy          per atom          (sec)   <-- SCF
------------------------------------------------------------------------ <-- SCF
Initial  -6.63119102E+004  0.00000000E+000                       261.41  <-- SCF
      1  -6.63119131E+004  7.19815941E+000   3.32117526E-005     269.99  <-- SCF
      2  -6.63119131E+004  7.19815941E+000   2.00098141E-010     276.27  <-- SCF
      3  -6.63119131E+004  7.19815017E+000   2.04807408E-008     282.58  <-- SCF
      4  -6.63119131E+004  7.19815408E+000   6.49229176E-010     288.89  <-- SCF
      5  -6.63119131E+004  7.19814932E+000  -8.43702633E-012     295.15  <-- SCF
------------------------------------------------------------------------ <-- SCF
 
Final energy, E             =  -66311.91307909     eV
Final free energy (E-TS)    =  -66311.91307909     eV
(energies not corrected for finite basis set)
 
NB est. 0K energy (E-0.5TS)      =  -66311.91307909     eV
 
 For future reference: finite basis dEtot/dlog(Ecut) =      -0.438372eV
 Total energy corrected for finite basis set =  -66311.913080 eV
 
  =====================================================================
  +       Calculation of Nuclear Magnetic Resonance Parameters        +
  + ================================================================= +
 
  Starting Calculation of Electric Field Gradient Tensors         |<-- EFG
  +---------------- MEMORY AND SCRATCH DISK ESTIMATES PER PROCESS --------------+
  |                                                     Memory          Disk    |
  | Model and support data                              151.1 MB         0.0 MB |
  | NMR EFG calculation requirements                     27.3 MB         0.0 MB |
  |                                               ----------------------------- |
  | Approx. total storage required per process          178.4 MB         0.0 MB |
  |                                                                             |
  | Requirements will fluctuate during execution and may exceed these estimates |
  +-----------------------------------------------------------------------------+
  Total Time for EFG Tensors                      30.75 sec       |<-- EFG
 
  Starting Calculation of Chemical Shielding Tensors              |<-- NMR
  +---------------- MEMORY AND SCRATCH DISK ESTIMATES PER PROCESS --------------+
  |                                                     Memory          Disk    |
  | Model and support data                              151.1 MB         0.0 MB |
  | NMR chemical shift calculation requirements          90.3 MB         0.0 MB |
  |                                               ----------------------------- |
  | Approx. total storage required per process          241.4 MB         0.0 MB |
  |                                                                             |
  | Requirements will fluctuate during execution and may exceed these estimates |
  +-----------------------------------------------------------------------------+
  Starting k-point:   1 of   1                                    |<-- NMR
  Total Time for step 1 of 6:                    269.67 sec       |<-- NMR
  Total Time for step 2 of 6:                    270.97 sec       |<-- NMR
  Total Time for step 3 of 6:                    269.24 sec       |<-- NMR
  Total Time for step 4 of 6:                    271.48 sec       |<-- NMR
  Total Time for step 5 of 6:                    271.85 sec       |<-- NMR
  Total Time for step 6 of 6:                    268.89 sec       |<-- NMR
  Total Time for Chemical Shielding Tensors     2373.04 sec       |<-- NMR
 
  ========================================================================
  |           Chemical Shielding and Electric Field Gradient Tensors     |
  |----------------------------------------------------------------------|
  |     Nucleus                Shielding tensor             EFG Tensor   |
  |  Species       Ion    Iso(ppm)   Aniso(ppm)  Asym    Cq(MHz)    Eta  |
  |    O           1     -317.22      18.25      0.94   5.800E-02   0.80 |
  |    O           2     -316.41     -11.41      0.57   6.113E-02   0.06 |
  |    O           3     -317.36     -13.64      0.72  -6.354E-02   0.83 |
  |    O           4     -317.37     -19.73      0.64   3.675E-02   0.60 |
  |    O           5     -316.39     -11.01      0.61   6.090E-02   0.09 |
  |    O           6     -317.36     -19.42      0.65   3.635E-02   0.62 |
  |    O           7     -317.35     -13.34      0.76  -6.585E-02   0.86 |
  |    O           8     -317.24      18.72      0.92   5.764E-02   0.80 |
  |    O           9       -5.19      71.47      0.26   3.937E+00   0.81 |
  |    O          10     -161.07     148.56      0.81   1.086E+00   0.71 |
  |    O          11      -87.60      81.63      0.30  -3.131E+00   0.08 |
  |    O          12       -3.06      70.02      0.51   3.905E+00   0.86 |
  |    O          13      -89.59      96.06      0.33  -3.143E+00   0.10 |
  |    O          14      -86.46      92.36      0.36  -3.140E+00   0.08 |
  |    O          15      -86.96      85.18      0.11  -3.194E+00   0.08 |
  |    O          16      -83.92      81.52      0.13  -3.190E+00   0.09 |
  |    O          17      -82.96      83.89      0.19  -3.154E+00   0.08 |
  |    O          18      -86.26      77.72      0.09  -3.256E+00   0.11 |
  |    O          19       -1.26      67.57      0.83   3.839E+00   0.90 |
  |    O          20      -85.60      84.40      0.22  -3.201E+00   0.09 |
  |    O          21      -85.49      83.86      0.23  -3.200E+00   0.09 |
  |    O          22       -1.03      67.51      0.82   3.840E+00   0.90 |
  |    O          23      -86.59      79.07      0.09  -3.252E+00   0.11 |
  |    O          24      -82.95      83.62      0.19  -3.154E+00   0.08 |
  |    O          25     -161.15     148.22      0.82   1.084E+00   0.72 |
  |    O          26       -5.41      71.51      0.26   3.937E+00   0.81 |
  |    O          27       -3.21      69.99      0.51   3.906E+00   0.86 |
  |    O          28      -87.24      80.82      0.30  -3.133E+00   0.08 |
  |    O          29      -86.65      84.55      0.11  -3.195E+00   0.09 |
  |    O          30      -84.20      82.82      0.13  -3.185E+00   0.09 |
  |    O          31      -89.37      94.84      0.33  -3.143E+00   0.10 |
  |    O          32      -86.79      92.36      0.36  -3.136E+00   0.08 |
  |    O          33     -162.69     151.74      0.85   1.071E+00   0.73 |
  |    O          34      -90.76      88.26      0.15  -3.255E+00   0.13 |
  |    O          35      -86.59      86.09      0.40  -3.190E+00   0.09 |
  |    O          36      -88.52      95.25      0.31  -3.194E+00   0.10 |
  |    O          37      -90.73      93.17      0.25  -3.171E+00   0.11 |
  |    O          38      -86.56      84.39      0.10  -3.189E+00   0.08 |
  |    O          39     -162.36     153.43      0.78   1.065E+00   0.79 |
  |    O          40      -84.89      84.10      0.09  -3.216E+00   0.08 |
  |    O          41      -87.50      90.53      0.30  -3.196E+00   0.11 |
  |    O          42     -162.01     151.91      0.85   1.106E+00   0.70 |
  |    O          43      -86.61      85.98      0.40  -3.193E+00   0.09 |
  |    O          44      -88.14      94.90      0.31  -3.196E+00   0.10 |
  |    O          45      -90.24      86.05      0.16  -3.256E+00   0.13 |
  |    O          46     -162.73     150.97      0.85   1.069E+00   0.73 |
  |    O          47     -162.14     157.07      0.78   1.053E+00   0.78 |
  |    O          48     -162.24     159.61      0.83   1.089E+00   0.77 |
  |    O          49     -162.39     159.51      0.83   1.087E+00   0.77 |
  |    O          50     -162.08     156.88      0.78   1.055E+00   0.77 |
  |    O          51     -162.13     150.94      0.85   1.100E+00   0.70 |
  |    O          52      -87.67      92.46      0.29  -3.192E+00   0.10 |
  |    O          53      -85.20      84.37      0.09  -3.217E+00   0.08 |
  |    O          54     -162.37     153.05      0.79   1.067E+00   0.79 |
  |    O          55      -86.83      84.27      0.10  -3.189E+00   0.08 |
  |    O          56      -90.49      91.95      0.26  -3.173E+00   0.12 |
  |    Zr          1     1627.43    -124.95      0.09  -3.776E+01   0.09 |
  |    Zr          2     1620.95    -126.55      0.16  -3.650E+01   0.16 |
  |    Zr          3     1622.16    -126.74      0.18  -3.664E+01   0.10 |
  |    Zr          4     1626.99    -124.97      0.09  -3.782E+01   0.08 |
  |    Zr          5     1620.71    -123.00      0.11  -3.657E+01   0.11 |
  |    Zr          6     1626.95    -124.83      0.19  -3.742E+01   0.10 |
  |    Zr          7     1632.74    -123.05      0.03  -3.814E+01   0.03 |
  |    Zr          8     1620.81    -123.13      0.11  -3.657E+01   0.13 |
  |    Zr          9     1627.21    -124.82      0.19  -3.744E+01   0.12 |
  |    Sn          1     3257.24     -61.08      0.17   1.286E+02   0.13 |
  |    Sn          2     3257.48     -60.79      0.16   1.286E+02   0.13 |
  |    Sn          3     3257.08     -51.85      0.12   1.277E+02   0.00 |
  |    Sn          4     3257.06     -54.22      0.23   1.290E+02   0.12 |
  |    Sn          5     3250.31     -43.51      0.25   1.306E+02   0.02 |
  |    Sn          6     3257.10     -53.98      0.24   1.290E+02   0.12 |
  |    Sn          7     3250.33     -43.33      0.25   1.304E+02   0.02 |
  |    La          1     4756.15     865.68      0.04  -8.778E+01   0.06 |
  |    La          2     4649.55     650.25      0.01  -7.918E+01   0.02 |
  |    La          3     4703.47     761.17      0.06  -8.243E+01   0.08 |
  |    La          4     4755.86     866.66      0.04  -8.789E+01   0.07 |
  |    La          5     4647.93     655.13      0.11  -7.854E+01   0.15 |
  |    La          6     4654.59     653.78      0.10  -7.975E+01   0.13 |
  |    La          7     4708.39     759.34      0.05  -8.410E+01   0.08 |
  |    La          8     4708.44     759.05      0.05  -8.408E+01   0.08 |
  |    La          9     4543.78     381.13      0.09  -7.234E+01   0.09 |
  |    La         10     4599.04     546.16      0.11  -7.565E+01   0.20 |
  |    La         11     4648.65     657.22      0.11  -7.862E+01   0.15 |
  |    La         12     4654.87     653.30      0.10  -7.970E+01   0.13 |
  |    La         13     4709.67     779.38      0.10  -8.436E+01   0.14 |
  |    La         14     4661.65     652.91      0.08  -8.147E+01   0.13 |
  |    La         15     4709.95     779.36      0.10  -8.436E+01   0.14 |
  |    La         16     4661.59     653.08      0.08  -8.147E+01   0.13 |
  ========================================================================
 
 *********************** Forces ***********************
 *                                                    *
 *            Cartesian components (eV/A)             *
 * -------------------------------------------------- *
 *                   x            y            z      *
 *                                                    *
 * O         1      0.01327      0.00084      0.02110 *
 * O         2     -0.00539      0.00195     -0.00113 *
 * O         3      0.00099      0.00076     -0.00178 *
 * O         4     -0.00226     -0.00939     -0.00073 *
 * O         5      0.00084      0.00250      0.00246 *
 * O         6      0.00050     -0.00496     -0.00898 *
 * O         7      0.00126      0.00090     -0.00043 *
 * O         8     -0.01136      0.01776      0.00264 *
 * O         9     -0.00856     -0.00191      0.00046 *
 * O        10      0.02331     -0.01240     -0.00934 *
 * O        11      0.01085      0.02261     -0.00185 *
 * O        12     -0.01206      0.00472     -0.00240 *
 * O        13      0.00917      0.01213      0.00477 *
 * O        14      0.00058     -0.00011     -0.01238 *
 * O        15      0.02202     -0.00329      0.00681 *
 * O        16      0.02512      0.00600     -0.00619 *
 * O        17      0.02442     -0.00821     -0.00460 *
 * O        18      0.00834     -0.00805     -0.00735 *
 * O        19      0.00746      0.01001      0.02965 *
 * O        20      0.00082      0.01403     -0.00358 *
 * O        21     -0.00141     -0.00513      0.01226 *
 * O        22     -0.00905      0.02783      0.01112 *
 * O        23     -0.01184     -0.00561     -0.01393 *
 * O        24     -0.02729     -0.00679     -0.00084 *
 * O        25     -0.01803     -0.01344     -0.00809 *
 * O        26      0.00963      0.00135      0.00098 *
 * O        27      0.00905     -0.00775      0.00332 *
 * O        28     -0.01317     -0.00066      0.02378 *
 * O        29     -0.02297      0.01061     -0.00042 *
 * O        30     -0.02084     -0.00539      0.00287 *
 * O        31     -0.01263      0.01121      0.01051 *
 * O        32     -0.00056     -0.01338     -0.00395 *
 * O        33     -0.01700      0.00933      0.00796 *
 * O        34     -0.02411     -0.00789     -0.02307 *
 * O        35     -0.00141     -0.00395      0.01324 *
 * O        36     -0.00334     -0.00838     -0.00162 *
 * O        37      0.02054     -0.02068      0.01480 *
 * O        38     -0.02100      0.00182      0.00118 *
 * O        39     -0.01151      0.00602      0.00607 *
 * O        40      0.01705      0.00689      0.00050 *
 * O        41      0.02188      0.02480      0.00238 *
 * O        42      0.01756     -0.01093     -0.00817 *
 * O        43      0.00223      0.01215     -0.00080 *
 * O        44      0.00669     -0.00731     -0.00671 *
 * O        45      0.02302     -0.02253     -0.01123 *
 * O        46      0.01242      0.00520      0.01514 *
 * O        47      0.01301      0.02454     -0.00212 *
 * O        48     -0.00045     -0.03209     -0.00617 *
 * O        49      0.00086      0.00089     -0.03306 *
 * O        50     -0.00904      0.00223      0.01949 *
 * O        51     -0.00991     -0.00468     -0.01414 *
 * O        52     -0.01895      0.00464      0.02188 *
 * O        53     -0.01550     -0.00657      0.01161 *
 * O        54      0.01139      0.00325      0.00530 *
 * O        55      0.02017     -0.00336      0.00754 *
 * O        56     -0.02051      0.01465     -0.02373 *
 * Zr        1      0.00146      0.00775     -0.00224 *
 * Zr        2     -0.00595      0.00762     -0.00760 *
 * Zr        3      0.00268     -0.00201     -0.01011 *
 * Zr        4     -0.00751     -0.00098      0.01627 *
 * Zr        5      0.02333     -0.02404     -0.00332 *
 * Zr        6     -0.00406     -0.01029      0.02368 *
 * Zr        7     -0.00312      0.00933      0.00587 *
 * Zr        8     -0.01767     -0.00243     -0.01692 *
 * Zr        9     -0.01093      0.00202     -0.01321 *
 * Sn        1     -0.00334      0.00088     -0.01027 *
 * Sn        2      0.00864     -0.00634     -0.00325 *
 * Sn        3     -0.00325      0.00247     -0.00219 *
 * Sn        4     -0.00301      0.00258      0.00198 *
 * Sn        5      0.00830     -0.00835     -0.01247 *
 * Sn        6      0.01038      0.00612      0.00558 *
 * Sn        7     -0.01530     -0.01388     -0.00520 *
 * La        1     -0.01259     -0.00634     -0.01306 *
 * La        2      0.00007      0.00085      0.00200 *
 * La        3      0.00275     -0.00020      0.00036 *
 * La        4      0.01263     -0.01012     -0.00822 *
 * La        5      0.00398     -0.00592     -0.00223 *
 * La        6     -0.00597      0.01089     -0.00574 *
 * La        7      0.00756      0.00154     -0.00071 *
 * La        8     -0.00091     -0.00363     -0.00586 *
 * La        9      0.00058      0.00893      0.00169 *
 * La       10     -0.00216     -0.00659     -0.01301 *
 * La       11     -0.00674     -0.00567     -0.00275 *
 * La       12      0.01052     -0.00626      0.01655 *
 * La       13      0.01449     -0.00561      0.00520 *
 * La       14     -0.00726      0.01470      0.01739 *
 * La       15     -0.00996      0.00399     -0.00673 *
 * La       16      0.00808      0.01219      0.00751 *
 *                                                    *
 ******************************************************
 
 ***************** Stress Tensor *****************
 *                                               *
 *          Cartesian components (GPa)           *
 * --------------------------------------------- *
 *             x             y             z     *
 *                                               *
 *  x     -0.006528     -0.022416      0.022540  *
 *  y     -0.022416     -0.000180      0.000614  *
 *  z      0.022540      0.000614     -0.000488  *
 *                                               *
 *  Pressure:    0.0024                          *
 *                                               *
 *************************************************
 
 Pseudo atomic calculation performed for O 2s2 2p4
 
 Converged in 39 iterations to a total energy of -432.6554 eV
 
 
 Pseudo atomic calculation performed for Zr 4s2 4p6 4d2 5s2
 
 Converged in 38 iterations to a total energy of -1285.4931 eV
 
 
 Pseudo atomic calculation performed for Sn 4d10 5s2 5p2
 
 Converged in 48 iterations to a total energy of -2044.5413 eV
 
 
 Pseudo atomic calculation performed for La 5s2 5p6 5d1 6s2
 
 Converged in 34 iterations to a total energy of -968.0373 eV
 
Charge spilling parameter for spin component 1 = 0.24%
 
     Atomic Populations (Mulliken)
     -----------------------------
Species   Ion     s      p      d      f     Total  Charge (e)
==============================================================
  O        1     1.87   5.00   0.00   0.00   6.87    -0.87
  O        2     1.87   5.00   0.00   0.00   6.87    -0.87
  O        3     1.87   5.00   0.00   0.00   6.87    -0.87
  O        4     1.87   5.00   0.00   0.00   6.87    -0.87
  O        5     1.87   5.00   0.00   0.00   6.87    -0.87
  O        6     1.87   5.00   0.00   0.00   6.87    -0.87
  O        7     1.87   5.00   0.00   0.00   6.87    -0.87
  O        8     1.87   5.00   0.00   0.00   6.87    -0.87
  O        9     1.88   5.02   0.00   0.00   6.91    -0.91
  O       10     1.86   4.95   0.00   0.00   6.80    -0.80
  O       11     1.87   4.99   0.00   0.00   6.86    -0.86
  O       12     1.88   5.02   0.00   0.00   6.91    -0.91
  O       13     1.87   4.99   0.00   0.00   6.86    -0.86
  O       14     1.87   4.99   0.00   0.00   6.86    -0.86
  O       15     1.87   4.99   0.00   0.00   6.86    -0.86
  O       16     1.87   4.99   0.00   0.00   6.85    -0.85
  O       17     1.87   4.99   0.00   0.00   6.85    -0.85
  O       18     1.87   4.99   0.00   0.00   6.86    -0.86
  O       19     1.88   5.02   0.00   0.00   6.91    -0.91
  O       20     1.87   4.99   0.00   0.00   6.86    -0.86
  O       21     1.87   4.99   0.00   0.00   6.86    -0.86
  O       22     1.88   5.02   0.00   0.00   6.91    -0.91
  O       23     1.87   4.99   0.00   0.00   6.86    -0.86
  O       24     1.87   4.99   0.00   0.00   6.85    -0.85
  O       25     1.86   4.95   0.00   0.00   6.80    -0.80
  O       26     1.88   5.02   0.00   0.00   6.91    -0.91
  O       27     1.88   5.02   0.00   0.00   6.91    -0.91
  O       28     1.87   4.99   0.00   0.00   6.86    -0.86
  O       29     1.87   4.99   0.00   0.00   6.86    -0.86
  O       30     1.87   4.99   0.00   0.00   6.85    -0.85
  O       31     1.87   4.99   0.00   0.00   6.86    -0.86
  O       32     1.87   4.99   0.00   0.00   6.86    -0.86
  O       33     1.86   4.95   0.00   0.00   6.80    -0.80
  O       34     1.87   4.99   0.00   0.00   6.86    -0.86
  O       35     1.87   4.99   0.00   0.00   6.86    -0.86
  O       36     1.87   4.99   0.00   0.00   6.85    -0.85
  O       37     1.87   4.99   0.00   0.00   6.86    -0.86
  O       38     1.87   4.99   0.00   0.00   6.86    -0.86
  O       39     1.86   4.95   0.00   0.00   6.80    -0.80
  O       40     1.87   4.99   0.00   0.00   6.86    -0.86
  O       41     1.87   4.99   0.00   0.00   6.85    -0.85
  O       42     1.86   4.95   0.00   0.00   6.80    -0.80
  O       43     1.87   4.99   0.00   0.00   6.86    -0.86
  O       44     1.87   4.99   0.00   0.00   6.85    -0.85
  O       45     1.87   4.99   0.00   0.00   6.86    -0.86
  O       46     1.86   4.95   0.00   0.00   6.80    -0.80
  O       47     1.86   4.94   0.00   0.00   6.80    -0.80
  O       48     1.86   4.95   0.00   0.00   6.80    -0.80
  O       49     1.86   4.95   0.00   0.00   6.80    -0.80
  O       50     1.86   4.94   0.00   0.00   6.80    -0.80
  O       51     1.86   4.95   0.00   0.00   6.80    -0.80
  O       52     1.87   4.99   0.00   0.00   6.85    -0.85
  O       53     1.87   4.99   0.00   0.00   6.86    -0.86
  O       54     1.86   4.95   0.00   0.00   6.80    -0.80
  O       55     1.87   4.99   0.00   0.00   6.85    -0.85
  O       56     1.87   4.99   0.00   0.00   6.86    -0.86
  Zr       1     2.38   6.49   1.92   0.00  10.78     1.22
  Zr       2     2.37   6.49   1.92   0.00  10.78     1.22
  Zr       3     2.37   6.50   1.92   0.00  10.79     1.21
  Zr       4     2.38   6.49   1.92   0.00  10.79     1.21
  Zr       5     2.37   6.49   1.92   0.00  10.79     1.21
  Zr       6     2.37   6.48   1.92   0.00  10.78     1.22
  Zr       7     2.36   6.47   1.93   0.00  10.76     1.24
  Zr       8     2.37   6.49   1.92   0.00  10.79     1.21
  Zr       9     2.37   6.48   1.92   0.00  10.78     1.22
  Sn       1     1.05   1.31  10.00   0.00  12.36     1.64
  Sn       2     1.05   1.31  10.00   0.00  12.36     1.64
  Sn       3     1.05   1.31  10.00   0.00  12.36     1.64
  Sn       4     1.05   1.31  10.00   0.00  12.36     1.64
  Sn       5     1.05   1.31  10.00   0.00  12.36     1.64
  Sn       6     1.05   1.31  10.00   0.00  12.36     1.64
  Sn       7     1.05   1.31  10.00   0.00  12.36     1.64
  La       1     2.03   6.15   1.19   0.00   9.38     1.62
  La       2     2.08   6.17   1.19   0.00   9.44     1.56
  La       3     2.05   6.16   1.19   0.00   9.40     1.60
  La       4     2.03   6.15   1.19   0.00   9.38     1.62
  La       5     2.09   6.17   1.19   0.00   9.45     1.55
  La       6     2.08   6.17   1.19   0.00   9.45     1.55
  La       7     2.03   6.16   1.19   0.00   9.38     1.62
  La       8     2.03   6.16   1.19   0.00   9.38     1.62
  La       9     2.13   6.20   1.19   0.00   9.53     1.47
  La      10     2.08   6.19   1.19   0.00   9.46     1.54
  La      11     2.09   6.17   1.19   0.00   9.45     1.55
  La      12     2.08   6.17   1.19   0.00   9.45     1.55
  La      13     2.03   6.16   1.19   0.00   9.39     1.61
  La      14     2.05   6.18   1.19   0.00   9.43     1.57
  La      15     2.03   6.16   1.19   0.00   9.39     1.61
  La      16     2.05   6.18   1.19   0.00   9.43     1.57
==============================================================
 
            Bond              Population      Length (A)
============================================================
         O 45 -- Sn 6              0.34        2.10134
         O 34 -- Sn 4              0.34        2.10164
         O 23 -- Sn 2              0.35        2.10177
         O 18 -- Sn 1              0.35        2.10179
         O 44 -- Sn 5              0.35        2.10341
         O 37 -- Sn 3              0.34        2.10381
         O 14 -- Sn 5              0.34        2.10381
         O 56 -- Sn 3              0.34        2.10390
         O 36 -- Sn 7              0.34        2.10405
         O 40 -- Sn 2              0.35        2.10415
         O 32 -- Sn 7              0.34        2.10440
         O 53 -- Sn 1              0.35        2.10474
         O 29 -- Sn 4              0.35        2.10553
         O 21 -- Sn 1              0.35        2.10560
         O 20 -- Sn 2              0.35        2.10567
         O 35 -- Sn 6              0.35        2.10569
         O 43 -- Sn 4              0.35        2.10582
         O 15 -- Sn 6              0.35        2.10584
         O 38 -- Sn 2              0.35        2.10584
         O 28 -- Sn 3              0.35        2.10596
         O 24 -- Sn 5              0.34        2.10604
         O 17 -- Sn 7              0.34        2.10620
         O 55 -- Sn 1              0.35        2.10641
         O 11 -- Sn 3              0.35        2.10642
         O 31 -- Sn 6              0.34        2.10651
         O 52 -- Sn 5              0.34        2.10663
         O 41 -- Sn 7              0.34        2.10676
         O 16 -- Sn 7              0.35        2.10682
         O 13 -- Sn 4              0.34        2.10687
         O 30 -- Sn 5              0.34        2.10713
         O 9  -- Sn 5              0.34        2.10834
         O 26 -- Sn 7              0.34        2.10876
         O 12 -- Sn 4              0.34        2.10978
         O 27 -- Sn 6              0.34        2.11051
         O 48 -- Zr 8              0.42        2.11126
         O 49 -- Zr 5              0.42        2.11158
         O 26 -- Sn 1              0.33        2.11178
         O 9  -- Sn 2              0.33        2.11190
         O 22 -- Sn 3              0.34        2.11290
         O 19 -- Sn 3              0.34        2.11292
         O 42 -- Zr 2              0.41        2.11422
         O 51 -- Zr 2              0.42        2.11490
         O 22 -- Sn 4              0.33        2.11563
         O 27 -- Sn 2              0.32        2.11565
         O 39 -- Zr 4              0.42        2.11581
         O 12 -- Sn 1              0.32        2.11582
         O 42 -- Zr 9              0.41        2.11585
         O 54 -- Zr 1              0.42        2.11589
         O 19 -- Sn 6              0.33        2.11596
         O 33 -- Zr 3              0.42        2.11636
         O 46 -- Zr 5              0.42        2.11658
         O 13 -- Zr 9              0.45        2.11711
         O 10 -- Zr 6              0.42        2.11714
         O 54 -- Zr 7              0.43        2.11716
         O 48 -- Zr 1              0.41        2.11717
         O 39 -- Zr 7              0.43        2.11720
         O 51 -- Zr 6              0.41        2.11726
         O 33 -- Zr 8              0.42        2.11736
         O 10 -- Zr 7              0.42        2.11744
         O 49 -- Zr 4              0.41        2.11767
         O 47 -- Zr 6              0.43        2.11775
         O 25 -- Zr 9              0.42        2.11792
         O 36 -- Zr 3              0.45        2.11805
         O 25 -- Zr 7              0.42        2.11808
         O 46 -- Zr 3              0.41        2.11839
         O 44 -- Zr 3              0.45        2.11845
         O 31 -- Zr 6              0.45        2.11848
         O 50 -- Zr 9              0.43        2.11866
         O 50 -- Zr 1              0.43        2.11910
         O 14 -- Zr 5              0.44        2.11931
         O 32 -- Zr 8              0.44        2.11959
         O 47 -- Zr 4              0.43        2.12047
         O 34 -- Zr 4              0.45        2.12047
         O 37 -- Zr 4              0.44        2.12145
         O 17 -- Zr 7              0.45        2.12196
         O 23 -- Zr 6              0.45        2.12209
         O 45 -- Zr 1              0.45        2.12236
         O 24 -- Zr 7              0.45        2.12243
         O 52 -- Zr 1              0.45        2.12258
         O 56 -- Zr 1              0.44        2.12271
         O 35 -- Zr 2              0.45        2.12297
         O 15 -- Zr 8              0.45        2.12300
         O 38 -- Zr 2              0.45        2.12306
         O 43 -- Zr 2              0.45        2.12312
         O 55 -- Zr 2              0.45        2.12313
         O 29 -- Zr 5              0.45        2.12332
         O 18 -- Zr 9              0.45        2.12334
         O 20 -- Zr 5              0.45        2.12353
         O 21 -- Zr 8              0.45        2.12385
         O 53 -- Zr 3              0.45        2.12434
         O 41 -- Zr 4              0.45        2.12446
         O 40 -- Zr 3              0.45        2.12459
         O 30 -- Zr 9              0.45        2.12479
         O 11 -- Zr 8              0.44        2.12532
         O 28 -- Zr 5              0.44        2.12604
         O 16 -- Zr 6              0.45        2.12627
         O 8  -- La 4              0.20        2.35711
         O 1  -- La 1              0.20        2.35725
         O 6  -- La 1              0.19        2.35806
         O 4  -- La 4              0.19        2.35810
         O 3  -- La 8              0.18        2.35897
         O 7  -- La 7              0.18        2.35908
         O 8  -- La 13             0.18        2.35912
         O 1  -- La 15             0.18        2.35915
         O 5  -- La 15             0.18        2.35922
         O 2  -- La 13             0.18        2.35946
         O 2  -- La 7              0.18        2.35990
         O 3  -- La 3              0.17        2.35992
         O 5  -- La 8              0.18        2.36007
         O 7  -- La 3              0.17        2.36019
         O 3  -- La 14             0.19        2.36088
         O 2  -- La 2              0.16        2.36099
         O 4  -- La 16             0.17        2.36103
         O 5  -- La 2              0.16        2.36104
         O 7  -- La 16             0.19        2.36114
         O 6  -- La 14             0.17        2.36115
         O 1  -- La 11             0.16        2.36120
         O 8  -- La 5              0.16        2.36136
         O 4  -- La 6              0.17        2.36148
         O 7  -- La 11             0.16        2.36148
         O 6  -- La 12             0.17        2.36153
         O 2  -- La 12             0.18        2.36165
         O 3  -- La 5              0.16        2.36170
         O 5  -- La 6              0.18        2.36184
         O 8  -- La 10             0.16        2.36343
         O 1  -- La 10             0.16        2.36374
         O 4  -- La 9              0.16        2.36506
         O 6  -- La 9              0.16        2.36517
         O 47 -- La 11             0.12        2.66407
         O 50 -- La 5              0.12        2.66476
         O 49 -- La 12             0.13        2.66646
         O 48 -- La 6              0.13        2.66660
         O 19 -- La 9              0.24        2.66673
         O 22 -- La 9              0.24        2.66691
         O 53 -- La 9              0.17        2.66749
         O 40 -- La 9              0.17        2.66764
         O 10 -- La 13             0.13        2.66896
         O 25 -- La 15             0.13        2.66925
         O 55 -- La 10             0.17        2.66955
         O 15 -- La 12             0.19        2.66979
         O 38 -- La 10             0.17        2.66983
         O 17 -- La 10             0.18        2.66995
         O 24 -- La 10             0.18        2.67014
         O 29 -- La 6              0.19        2.67042
         O 37 -- La 2              0.17        2.67080
         O 13 -- La 11             0.17        2.67088
         O 31 -- La 5              0.17        2.67098
         O 30 -- La 11             0.18        2.67100
         O 56 -- La 2              0.17        2.67105
         O 39 -- La 3              0.12        2.67116
         O 54 -- La 3              0.12        2.67117
         O 16 -- La 5              0.18        2.67135
         O 51 -- La 14             0.13        2.67157
         O 23 -- La 11             0.17        2.67191
         O 42 -- La 16             0.13        2.67194
         O 36 -- La 2              0.17        2.67211
         O 46 -- La 15             0.12        2.67218
         O 18 -- La 5              0.17        2.67229
         O 44 -- La 2              0.17        2.67239
         O 12 -- La 9              0.24        2.67289
         O 27 -- La 9              0.24        2.67298
         O 33 -- La 13             0.12        2.67300
         O 28 -- La 16             0.19        2.67321
         O 11 -- La 14             0.18        2.67324
         O 32 -- La 12             0.17        2.67375
         O 14 -- La 6              0.17        2.67428
         O 35 -- La 3              0.17        2.67461
         O 21 -- La 6              0.18        2.67466
         O 43 -- La 3              0.17        2.67487
         O 20 -- La 12             0.18        2.67501
         O 51 -- La 1              0.14        2.67520
         O 42 -- La 4              0.14        2.67549
         O 10 -- La 7              0.12        2.67557
         O 25 -- La 8              0.12        2.67592
         O 26 -- La 10             0.24        2.67608
         O 34 -- La 11             0.17        2.67619
         O 45 -- La 5              0.17        2.67631
         O 46 -- La 1              0.13        2.67642
         O 54 -- La 7              0.13        2.67644
         O 33 -- La 4              0.13        2.67653
         O 9  -- La 10             0.24        2.67657
         O 39 -- La 8              0.13        2.67664
         O 9  -- La 11             0.24        2.67709
         O 41 -- La 2              0.19        2.67727
         O 26 -- La 5              0.24        2.67743
         O 11 -- La 8              0.17        2.67774
         O 52 -- La 2              0.19        2.67798
         O 28 -- La 7              0.17        2.67804
         O 32 -- La 14             0.18        2.67960
         O 14 -- La 16             0.18        2.67968
         O 45 -- La 3              0.19        2.67972
         O 21 -- La 8              0.18        2.68014
         O 35 -- La 16             0.19        2.68027
         O 34 -- La 3              0.19        2.68027
         O 43 -- La 14             0.19        2.68036
         O 20 -- La 7              0.18        2.68048
         O 12 -- La 6              0.24        2.68165
         O 47 -- La 1              0.14        2.68199
         O 27 -- La 12             0.24        2.68199
         O 50 -- La 4              0.14        2.68204
         O 48 -- La 4              0.13        2.68217
         O 41 -- La 12             0.19        2.68227
         O 49 -- La 1              0.13        2.68227
         O 31 -- La 13             0.18        2.68271
         O 52 -- La 6              0.19        2.68274
         O 13 -- La 15             0.18        2.68313
         O 19 -- La 16             0.24        2.68316
         O 56 -- La 7              0.18        2.68319
         O 37 -- La 8              0.18        2.68323
         O 36 -- La 15             0.18        2.68340
         O 18 -- La 8              0.18        2.68347
         O 22 -- La 14             0.24        2.68348
         O 23 -- La 7              0.18        2.68349
         O 55 -- La 1              0.19        2.68370
         O 44 -- La 13             0.18        2.68396
         O 38 -- La 4              0.19        2.68447
         O 29 -- La 15             0.17        2.68469
         O 15 -- La 13             0.17        2.68494
         O 17 -- La 15             0.18        2.68561
         O 24 -- La 13             0.18        2.68574
         O 16 -- La 14             0.18        2.68589
         O 30 -- La 16             0.18        2.68645
         O 53 -- La 1              0.19        2.68707
         O 40 -- La 4              0.19        2.68776
         O 37 -- O 56             -0.06        2.79001
         O 13 -- O 34             -0.06        2.79069
         O 31 -- O 45             -0.06        2.79143
         O 44 -- O 52             -0.06        2.79240
         O 36 -- O 41             -0.06        2.79312
         O 34 -- O 43             -0.06        2.79348
         O 35 -- O 45             -0.06        2.79401
         O 9  -- O 23             -0.06        2.79607
         O 18 -- O 26             -0.06        2.79682
         O 26 -- O 55             -0.06        2.79700
         O 9  -- O 38             -0.06        2.79701
         O 12 -- O 53             -0.06        2.79751
         O 27 -- O 40             -0.06        2.79763
         O 9  -- O 30             -0.06        2.79851
         O 20 -- O 23             -0.06        2.79877
         O 9  -- O 24             -0.06        2.79910
         O 16 -- O 26             -0.06        2.79914
         O 15 -- O 27             -0.06        2.79927
         O 17 -- O 26             -0.06        2.79948
         O 18 -- O 21             -0.06        2.79952
         O 12 -- O 29             -0.06        2.79974
         O 14 -- O 52             -0.06        2.80095
         O 32 -- O 41             -0.06        2.80144
         O 11 -- O 37             -0.06        2.80145
         O 28 -- O 56             -0.06        2.80175
         O 19 -- O 22             -0.05        2.80237
         O 19 -- O 27             -0.05        2.80307
         O 12 -- O 22             -0.05        2.80316
         O 15 -- O 31             -0.06        2.80439
         O 13 -- O 29             -0.06        2.80441
         O 20 -- O 27             -0.06        2.80619
         O 24 -- O 44             -0.06        2.80662
         O 12 -- O 21             -0.06        2.80665
         O 53 -- O 55             -0.06        2.80670
         O 38 -- O 40             -0.06        2.80680
         O 14 -- O 30             -0.06        2.80681
         O 17 -- O 36             -0.06        2.80682
         O 16 -- O 32             -0.06        2.80705
         O 11 -- O 22             -0.06        2.80739
         O 19 -- O 28             -0.05        2.80800
         O 22 -- O 43             -0.05        2.81077
         O 19 -- O 35             -0.05        2.81097
         O 39 -- O 54             -0.03        2.81518
         O 18 -- O 50             -0.03        2.81589
         O 21 -- O 48             -0.03        2.81627
         O 23 -- O 47             -0.03        2.81628
         O 20 -- O 49             -0.03        2.81641
         O 34 -- O 47             -0.03        2.81749
         O 45 -- O 50             -0.03        2.81773
         O 46 -- O 49             -0.03        2.81874
         O 33 -- O 48             -0.03        2.81879
         O 10 -- O 54             -0.03        2.81888
         O 25 -- O 39             -0.03        2.81943
         O 43 -- O 51             -0.03        2.82023
         O 36 -- O 46             -0.03        2.82029
         O 35 -- O 42             -0.03        2.82030
         O 36 -- O 44             -0.03        2.82059
         O 33 -- O 44             -0.03        2.82060
         O 45 -- O 54             -0.03        2.82117
         O 34 -- O 39             -0.03        2.82160
         O 38 -- O 55             -0.03        2.82189
         O 42 -- O 50             -0.03        2.82192
         O 47 -- O 51             -0.03        2.82221
         O 41 -- O 49             -0.03        2.82248
         O 13 -- O 25             -0.03        2.82271
         O 48 -- O 52             -0.03        2.82293
         O 10 -- O 31             -0.03        2.82324
         O 40 -- O 53             -0.03        2.82445
         O 15 -- O 32             -0.03        2.82464
         O 47 -- O 49             -0.03        2.82480
         O 14 -- O 29             -0.03        2.82481
         O 48 -- O 50             -0.03        2.82515
         O 29 -- O 46             -0.03        2.82530
         O 15 -- O 33             -0.03        2.82532
         O 16 -- O 31             -0.03        2.82535
         O 13 -- O 30             -0.03        2.82547
         O 37 -- O 39             -0.03        2.82640
         O 54 -- O 56             -0.03        2.82641
         O 37 -- O 41             -0.03        2.82688
         O 52 -- O 56             -0.03        2.82728
         O 51 -- O 55             -0.03        2.82831
         O 17 -- O 24             -0.03        2.82836
         O 18 -- O 25             -0.03        2.82836
         O 14 -- O 28             -0.03        2.82844
         O 11 -- O 32             -0.03        2.82849
         O 38 -- O 42             -0.03        2.82879
         O 10 -- O 23             -0.03        2.82924
         O 17 -- O 25             -0.03        2.82993
         O 16 -- O 51             -0.03        2.82995
         O 30 -- O 42             -0.03        2.83010
         O 46 -- O 53             -0.03        2.83045
         O 10 -- O 24             -0.03        2.83051
         O 35 -- O 43             -0.03        2.83080
         O 33 -- O 40             -0.03        2.83087
         O 20 -- O 28             -0.03        2.83479
         O 11 -- O 21             -0.03        2.83494
============================================================
 
Initialisation time =     28.47 s
Calculation time    =   2687.44 s
Finalisation time   =      0.12 s
Total time          =   2716.04 s
Peak Memory Use     = 3687708 kB
  
Overall parallel efficiency rating: Good (75%)                                  
  
Data was distributed by:-
G-vector (64-way); efficiency rating: Good (76%)                                
k-point (14-way); efficiency rating: Excellent (97%)                            
