 +-------------------------------------------------+
 |                                                 |
 |      CCC   AA    SSS  TTTTT  EEEEE  PPPP        |
 |     C     A  A  S       T    E      P   P       |
 |     C     AAAA   SS     T    EEE    PPPP        |
 |     C     A  A     S    T    E      P           |
 |      CCC  A  A  SSS     T    EEEEE  P           |
 |                                                 |
 +-------------------------------------------------+
 |                                                 |
 | Welcome to Academic Release CASTEP version 16.1 |          
 | Ab Initio Total Energy Program                  |
 |                                                 |
 | Authors:                                        |
 | M. Segall, M. Probert, C. Pickard, P. Hasnip,   |
 | S. Clark, K. Refson, J. R. Yates, M. Payne      |
 |                                                 |
 | Contributors:                                   |
 | P. Lindan, P. Haynes, J. White, V. Milman,      |
 | N. Govind, M. Gibson, P. Tulip, V. Cocula,      |
 | B. Montanari, D. Quigley, M. Glover,            |
 | L. Bernasconi, A. Perlov, M. Plummer,           |
 | E. McNellis, J. Meyer, J. Gale, D. Jochym       |
 | J. Aarons, B. Walker, R. Gillen, D. Jones       |
 | T. Green, I. J. Bush, C. J. Armstrong,          |
 | E. J. Higgins, E. L. Brown, M. S. McFly         |
 |                                                 |
 | Copyright (c) 2000 - 2015                       |
 |                                                 |
 |     Distributed under the terms of an           |
 |     Agreement between the United Kingdom        |
 |     Car-Parrinello (UKCP) Consortium,           |
 |     Daresbury Laboratory and Accelrys, Inc.     |
 |                                                 |
 | Please cite                                     |
 |                                                 |
 |     "First principles methods using CASTEP"     |
 |                                                 |
 |         Zeitschrift fuer Kristallographie       |
 |           220(5-6) pp. 567-570 (2005)           |
 |                                                 |
 | S. J. Clark, M. D. Segall, C. J. Pickard,       |
 | P. J. Hasnip, M. J. Probert, K. Refson,         |
 | M. C. Payne                                     |
 |                                                 |
 |       in all publications arising from          |
 |              your use of CASTEP                 |
 |                                                 |
 +-------------------------------------------------+
 
 
 Compiled for linux_x86_64_cray-XT on Tue, 22 Mar 2022 15:42:52 +0000
 from code version b833c1ffcd7d+  Fri, 13 Jun 2014 17:24:31 +0100
 Compiler: Cray Fortran 11.0.4; Optimisation: intermediate
 MATHLIBS: LibSci (LAPACK version 3.6.1)
 FFT Lib : default
 Fundamental constants values: CODATA 2010
 
 Run started: Fri, 25 Mar 2022 19:58:19 +0000
 +-------------------------------------------------+
 |                                                 |
 |           N   N    M   M    RRRR                |
 |           NN  N    MM MM    R   R               |
 |           N N N    M M M    RRRR                |
 |           N  NN    M   M    R  R                |
 |           N   N    M   M    R   R               |
 |                                                 |
 +-------------------------------------------------+
 |                                                 |
 | Welcome to Materials Studio CASTEP-NMR          |
 |                                                 |
 | Authors:                                        |
 | J.R. Yates, C.J. Pickard, F. Mauri              |
 |                                                 |
 | Contributors:                                   |
 | T.F.G. Green, S.A. Joyce                        |
 |                                                 |
 | Copyright (c) 2004 - 2015                       |
 |                                                 |
 | Please cite the appropriate publications in all |
 | work arising from your use of CASTEP NMR.       |
 |                                                 |
 | For NMR Shielding Tensors cite:                 |
 |    "All-electron magnetic response with         |
 |    pseudopotentials: NMR chemical shifts",      |
 |    C. J. Pickard, F. Mauri;                     |
 |    Physical Review B63 245101 (2001), and       |
 |                                                 |
 |    "Calculation of NMR Chemical Shifts          |
 |    for extended systems using                   |
 |    Ultrasoft Pseudopotentials",                 |
 |    J. R. Yates, C. J. Pickard and F. Mauri      |
 |    Physical Review B76 024401 (2007)            |
 |                                                 |
 | For Electric Field Gradients cite:              |
 |   "Accurate First Principles Prediction of 17O  |
 |    NMR Parameters in SiO2: Assignment of the    |
 |    Zeolite Ferrierite Spectrum"                 |
 |    M. Profeta, F. Mauri and C. J. Pickard       |
 |    J. Amer. Chem. Soc. 125 541 (2003)           |
 |                                                 |
 | For Spin-Spin (J) Couplings cite:               |
 |   "A first principles theory of NMR J-coupling  |
 |   in solid-state systems"                       |
 |   S.A. Joyce, J.R. Yates, C.J. Pickard, F. Mauri|
 |   J. Chem. Phys. 127 204107 (2007)              |
 |                                                 |
 |   "Relativistic NMR J-coupling with ultrasoft   |
 |   pseudopotentials and the zeroth-order regular |
 |   approximation"                                |
 |   T.F.G. Green and J.R. Yates                   |
 |   J. Chem. Phys. 140 234106 (2014)              |
 |                                                 |
 +-------------------------------------------------+
 
 
 Atomic calculation performed for O: 1s2 2s2 2p4
 
 Converged in 44 iterations to an ae energy of -2040.855 eV
 
 
 Atomic calculation performed for O: 1s2 2s2 2p4
 
 Exceeded max iterations: converged to 0.000000062 eV
 
   ============================================================                
   | Pseudopotential Report - Date of generation 25-03-2022   |                
   ------------------------------------------------------------                
   | Element: O Ionic charge:  6.00 Level of theory: PBE      |                
   | Atomic Solver: ZORA (scalar)                             |                
   |                                                          |                
   |               Reference Electronic Structure             |                
   |         Orbital         Occupation         Energy        |                
   |            2s              2.000           -0.881        |                
   |            2p              4.000           -0.332        |                
   |                                                          |                
   |                 Pseudopotential Definition               |                
   |        Beta     l      e      Rc     scheme   norm       |                
   |          1      0   -0.881   1.100     qc      0         |                
   |          2      0    0.250   1.100     qc      0         |                
   |          3      1   -0.332   1.100     qc      0         |                
   |          4      1    0.250   1.100     qc      0         |                
   |         loc     2    0.000   1.100     pn      0         |                
   |                                                          |                
   | Augmentation charge Rinner = 0.769                       |                
   | Partial core correction Rc = 0.769                       |                
   ------------------------------------------------------------                
   | "2|1.1|15|18|20|20:21(qc=7)"                             |                
   ------------------------------------------------------------                
   |      Author: Chris J. Pickard, Cambridge University      |                
   ============================================================                
 
 Atomic calculation performed for Zr: 1s2 2s2 2p6 3s2 3p6 3d10 4s2 4p6 4d2 5s2
 
 Converged in 52 iterations to an ae energy of -97719.888 eV
 
 
 Atomic calculation performed for Zr: 1s2 2s2 2p6 3s2 3p6 3d10 4s2 4p6 4d2 5s2
 
 Exceeded max iterations: converged to 0.000000936 eV
 
 Warning: ion_atom_descreen_psp: negative charge density encountered
   ============================================================                
   | Pseudopotential Report - Date of generation 25-03-2022   |                
   ------------------------------------------------------------                
   | Element: Zr Ionic charge: 12.00 Level of theory: PBE     |                
   | Atomic Solver: ZORA (scalar)                             |                
   |                                                          |                
   |               Reference Electronic Structure             |                
   |         Orbital         Occupation         Energy        |                
   |            4s              2.000           -2.003        |                
   |            4p              6.000           -1.193        |                
   |            5s              2.000           -0.163        |                
   |            4d              2.000           -0.132        |                
   |                                                          |                
   |                 Pseudopotential Definition               |                
   |        Beta     l      e      Rc     scheme   norm       |                
   |          1      0   -2.003   2.105     qc      0         |                
   |          2      0   -0.163   2.105     qc      0         |                
   |          3      0    0.250   2.105     qc      0         |                
   |          4      1   -1.193   2.105     qc      0         |                
   |          5      1    0.250   2.105     qc      0         |                
   |          6      2   -0.132   2.105     qc      0         |                
   |          7      2    0.250   2.105     qc      0         |                
   |         loc     3    0.000   2.105     pn      0         |                
   |                                                          |                
   | Augmentation charge Rinner = 1.471                       |                
   | Partial core correction Rc = 1.471                       |                
   ------------------------------------------------------------                
   | "3|2.1|7|8|9|40U:50:41:42"                               |                
   ------------------------------------------------------------                
   |      Author: Chris J. Pickard, Cambridge University      |                
   ============================================================                
 
 Atomic calculation performed for Sn:
 1s2 2s2 2p6 3s2 3p6 3d10 4s2 4p6 4d10 5s2 5p2
 
 Converged in 58 iterations to an ae energy of -167539.320 eV
 
 
 Atomic calculation performed for Sn:
 1s2 2s2 2p6 3s2 3p6 3d10 4s2 4p6 4d10 5s2 5p2
 
 Exceeded max iterations: converged to -0.000000491 eV
 
   ============================================================                
   | Pseudopotential Report - Date of generation 25-03-2022   |                
   ------------------------------------------------------------                
   | Element: Sn Ionic charge: 14.00 Level of theory: PBE     |                
   | Atomic Solver: ZORA (scalar)                             |                
   |                                                          |                
   |               Reference Electronic Structure             |                
   |         Orbital         Occupation         Energy        |                
   |            4d             10.000           -0.950        |                
   |            5s              2.000           -0.388        |                
   |            5p              2.000           -0.136        |                
   |                                                          |                
   |                 Pseudopotential Definition               |                
   |        Beta     l      e      Rc     scheme   norm       |                
   |          1      0   -0.388   2.199     qc      0         |                
   |          2      0    0.250   2.199     qc      0         |                
   |          3      1   -0.136   2.199     qc      0         |                
   |          4      1    0.250   2.199     qc      0         |                
   |          5      2   -0.950   2.199     qc      0         |                
   |          6      2    0.250   2.199     qc      0         |                
   |         loc     3    0.000   2.199     pn      0         |                
   |                                                          |                
   | Augmentation charge Rinner = 1.537                       |                
   | Partial core correction Rc = 1.537                       |                
   ------------------------------------------------------------                
   | "3|2.2|7|8|9|50:51:42"                                   |                
   ------------------------------------------------------------                
   |      Author: Chris J. Pickard, Cambridge University      |                
   ============================================================                
 
 Atomic calculation performed for La:
 1s2 2s2 2p6 3s2 3p6 3d10 4s2 4p6 4d10 5s2 5p6 5d1 6s2
 
 Converged in 55 iterations to an ae energy of -230121.495 eV
 
 
 Atomic calculation performed for La:
 1s2 2s2 2p6 3s2 3p6 3d10 4s2 4p6 4d10 5s2 5p6 5d1 6s2
 
 Exceeded max iterations: converged to 0.000001134 eV
 
 Warning: ion_atom_descreen_psp: negative charge density encountered
   ============================================================                
   | Pseudopotential Report - Date of generation 25-03-2022   |                
   ------------------------------------------------------------                
   | Element: La Ionic charge: 11.00 Level of theory: PBE     |                
   | Atomic Solver: ZORA (scalar)                             |                
   |                                                          |                
   |               Reference Electronic Structure             |                
   |         Orbital         Occupation         Energy        |                
   |            5s              2.000           -1.430        |                
   |            5p              6.000           -0.823        |                
   |            6s              2.000           -0.135        |                
   |            5d              1.000           -0.114        |                
   |                                                          |                
   |                 Pseudopotential Definition               |                
   |        Beta     l      e      Rc     scheme   norm       |                
   |          1      0   -1.430   2.298     qc      0         |                
   |          2      0   -0.135   2.298     qc      0         |                
   |          3      0    0.250   2.298     qc      0         |                
   |          4      1   -0.823   2.298     qc      0         |                
   |          5      1    0.250   2.298     qc      0         |                
   |          6      2   -0.114   2.298     qc      0         |                
   |          7      2    0.250   2.298     qc      0         |                
   |         loc     2    0.000   2.298     pn      0         |                
   |                                                          |                
   | Augmentation charge Rinner = 1.606                       |                
   | Partial core correction Rc = 1.606                       |                
   ------------------------------------------------------------                
   | "2|2.3|5|6|7|50U:60:51:52(qc=4.5)"                       |                
   ------------------------------------------------------------                
   |      Author: Chris J. Pickard, Cambridge University      |                
   ============================================================                
 
 Pseudo atomic calculation performed for O 2s2 2p4
 
 Converged in 39 iterations to a total energy of -432.6554 eV
 
 
 Pseudo atomic calculation performed for Zr 4s2 4p6 4d2 5s2
 
 Converged in 38 iterations to a total energy of -1285.4931 eV
 
 
 Pseudo atomic calculation performed for Sn 4d10 5s2 5p2
 
 Converged in 48 iterations to a total energy of -2044.5413 eV
 
 
 Pseudo atomic calculation performed for La 5s2 5p6 5d1 6s2
 
 Converged in 34 iterations to a total energy of -968.0373 eV
 
 Calculation parallelised over 896 processes.
 Data is distributed by G-vector(64-way) and k-point(14-way)

 ************************************ Title ************************************
 nmr testing

 ***************************** General Parameters ******************************
  
 output verbosity                               : normal  (1)
 write checkpoint data to                       : 39.check
 type of calculation                            : Magnetic Resonance
 stress calculation                             : on
 density difference calculation                 : off
 electron localisation func (ELF) calculation   : off
 Hirshfeld analysis                             : off
 unlimited duration calculation
 timing information                             : on
 memory usage estimate                          : on
 write final potential to formatted file        : off
 write final density to formatted file          : off
 write BibTeX reference list                    : off
 write OTFG pseudopotential files               : on
 checkpoint writing                             : off
  
 output         length unit                     : A
 output           mass unit                     : amu
 output           time unit                     : ps
 output         charge unit                     : e
 output           spin unit                     : hbar/2
 output         energy unit                     : eV
 output          force unit                     : eV/A
 output       velocity unit                     : A/ps
 output       pressure unit                     : GPa
 output     inv_length unit                     : 1/A
 output      frequency unit                     : cm-1
 output force constant unit                     : eV/A**2
 output         volume unit                     : A**3
 output   IR intensity unit                     : (D/A)**2/amu
 output         dipole unit                     : D
 output         efield unit                     : eV/A/e
 output        entropy unit                     : J/mol/K
  
 wavefunctions paging                           : none
 random number generator seed                   : randomised (195819674)
 data distribution                              : optimal for this architecture
 optimization strategy                          : maximize speed(+++)

 *********************** Exchange-Correlation Parameters ***********************
  
 using functional                               : Perdew Burke Ernzerhof
 relativistic treatment                         : ZORA
 DFT+D: Semi-empirical dispersion correction    : off

 ************************* Pseudopotential Parameters **************************
  
 pseudopotential representation                 : reciprocal space
 <beta|phi> representation                      : reciprocal space
 spin-orbit coupling                            : off

 **************************** Basis Set Parameters *****************************
  
 plane wave basis set cut-off                   :   816.3416   eV
 size of standard grid                          :     1.7500
 size of   fine   gmax                          :    25.6161   1/A
 finite basis set correction                    : automatic
 number of sample energies                      :          3
           sample  spacing                      :     5.0000   eV

 **************************** Electronic Parameters ****************************
  
 number of  electrons                           :  718.0    
 net charge of system                           :  0.000    
 treating system as non-spin-polarized
 number of bands                                :        431

 ********************* Electronic Minimization Parameters **********************
  
 Method: Treating system as metallic with density mixing treatment of electrons,
         and number of  SD  steps               :          1
         and number of  CG  steps               :          4
  
 total energy / atom convergence tol.           : 0.1000E-08   eV
 eigen-energy convergence tolerance             : 0.2451E-09   eV
 max force / atom convergence tol.              : ignored
 convergence tolerance window                   :          3   cycles
 max. number of SCF cycles                      :         50
 number of fixed-spin iterations                :         10
 smearing scheme                                : Gaussian
 smearing width                                 : 0.2000       eV
 Fermi energy convergence tolerance             : 0.2721E-13   eV
 periodic dipole correction                     : NONE

 ************************** Density Mixing Parameters **************************
  
 density-mixing scheme                          : Broyden
 max. length of mixing history                  :         20
 charge density mixing amplitude                : 0.8000    
 cut-off energy for mixing                      :  816.3       eV

 *********************** Population Analysis Parameters ************************
  
 Population analysis with cutoff                :  3.000       A

 ************************ Magnetic Resonance Parameters ************************
  
 Magnetic Resonance Property                    : Chemical Shielding + EFG
 Position Operator Method                       : crystal
 max. number of MagRes CG steps                 :        250
 convergence tolerance window                   :          2   cycles
 energy convergence tolerance                   : 0.1000E-11   eV
 band convergence tolerance                     : 0.1000E-08   eV

 *******************************************************************************
  
 
                           -------------------------------
                                      Unit Cell
                           -------------------------------
        Real Lattice(A)                      Reciprocal Lattice(1/A)
  10.9045960   0.0023569   0.0019785        0.5761961  -0.0001250  -0.0001046
   0.0023632  10.9035015  -0.0076568       -0.0001246   0.5762542   0.0004037
   0.0019769  -0.0076370  10.9019195       -0.0001047   0.0004047   0.5763378
 
                       Lattice parameters(A)       Cell Angles
                    a =   10.904596          alpha =   90.080370
                    b =   10.903504          beta  =   89.979223
                    c =   10.901922          gamma =   89.975205
 
                       Current cell volume = 1296.218718       A**3
 
                           -------------------------------
                                     Cell Contents
                           -------------------------------
                         Total number of ions in cell =   88
                      Total number of species in cell =    4
                        Max number of any one species =   56
 
            xxxxxxxxxxxxxxxxxxxxxxxxxxxxxxxxxxxxxxxxxxxxxxxxxxxxxxxxxxxx
            x  Element    Atom        Fractional coordinates of atoms  x
            x            Number           u          v          w      x
            x----------------------------------------------------------x
            x  O            1         0.125165   0.124863   0.124950   x 
            x  O            2         0.624807   0.125238   0.624955   x 
            x  O            3         0.125218   0.624971   0.625094   x 
            x  O            4         0.624954   0.624956   0.124911   x 
            x  O            5         0.874668   0.374849   0.374943   x 
            x  O            6         0.874943   0.875080   0.875192   x 
            x  O            7         0.375196   0.374895   0.874921   x 
            x  O            8         0.375024   0.875213   0.374845   x 
            x  O            9         0.420348   0.125359   0.124788   x 
            x  O           10         0.330084   0.124724   0.624845   x 
            x  O           11         0.829443   0.625840   0.624016   x 
            x  O           12         0.919601   0.625037   0.125388   x 
            x  O           13         0.125209   0.419542   0.124309   x 
            x  O           14         0.624990   0.329708   0.124856   x 
            x  O           15         0.625564   0.830229   0.624823   x 
            x  O           16         0.124382   0.920566   0.623600   x 
            x  O           17         0.124304   0.123905   0.420344   x 
            x  O           18         0.124728   0.625561   0.330263   x 
            x  O           19         0.624597   0.625587   0.829656   x 
            x  O           20         0.625514   0.124716   0.920215   x 
            x  O           21         0.875118   0.669607   0.374491   x 
            x  O           22         0.875338   0.579496   0.876234   x 
            x  O           23         0.374548   0.079890   0.874974   x 
            x  O           24         0.374627   0.170128   0.375037   x 
            x  O           25         0.170761   0.375898   0.373979   x 
            x  O           26         0.080374   0.874713   0.374880   x 
            x  O           27         0.579082   0.874245   0.873630   x 
            x  O           28         0.669920   0.375377   0.874968   x 
            x  O           29         0.875976   0.376269   0.079530   x 
            x  O           30         0.373621   0.375844   0.170669   x 
            x  O           31         0.375961   0.874349   0.670621   x 
            x  O           32         0.874267   0.875711   0.580399   x 
            x  O           33         0.670043   0.874501   0.376155   x 
            x  O           34         0.080215   0.374949   0.875584   x 
            x  O           35         0.375617   0.670599   0.874475   x 
            x  O           36         0.875505   0.079851   0.376245   x 
            x  O           37         0.875438   0.374009   0.670393   x 
            x  O           38         0.374556   0.874794   0.079759   x 
            x  O           39         0.124424   0.329357   0.625962   x 
            x  O           40         0.625477   0.920351   0.124953   x 
            x  O           41         0.919781   0.124482   0.624933   x 
            x  O           42         0.329935   0.624242   0.125155   x 
            x  O           43         0.124869   0.623649   0.920249   x 
            x  O           44         0.625237   0.124734   0.329863   x 
            x  O           45         0.420697   0.625758   0.625432   x 
            x  O           46         0.829691   0.124932   0.125060   x 
            x  O           47         0.124621   0.126239   0.829654   x 
            x  O           48         0.625972   0.625812   0.420367   x 
            x  O           49         0.875521   0.170560   0.873730   x 
            x  O           50         0.373868   0.579295   0.374331   x 
            x  O           51         0.170257   0.875081   0.875179   x 
            x  O           52         0.579738   0.375357   0.375059   x 
            x  O           53         0.875652   0.873812   0.170229   x 
            x  O           54         0.374691   0.375285   0.579961   x 
            x  O           55         0.124448   0.829992   0.126201   x 
            x  O           56         0.625261   0.419921   0.624946   x 
            x  Zr           1         0.500117   0.500194   0.500060   x 
            x  Zr           2         0.249584   0.749423   0.000332   x 
            x  Zr           3         0.751019  -0.000606   0.251078   x 
            x  Zr           4         0.750670   0.250861  -0.000518   x 
            x  Zr           5         0.249894   0.000308   0.749674   x 
            x  Zr           6         0.499831  -0.000236  -0.000268   x 
            x  Zr           7         0.249804   0.249485   0.500158   x 
            x  Zr           8         0.749696   0.499888   0.750067   x 
            x  Zr           9         0.499569   0.250511   0.250301   x 
            x  Sn           1         0.000016   0.249968   0.750037   x 
            x  Sn           2        -0.000032   0.749936   0.250078   x 
            x  Sn           3         0.750515   0.750568   0.499541   x 
            x  Sn           4         0.248869   0.500930   0.248934   x 
            x  Sn           5         0.000500   0.500327   0.000523   x 
            x  Sn           6         0.500676   0.749629   0.749369   x 
            x  Sn           7        -0.000526  -0.000534   0.499644   x 
            x  La           1        -0.000008   0.000134   0.000055   x 
            x  La           2         0.749722   0.249931   0.500055   x 
            x  La           3         0.250294   0.499801   0.750049   x 
            x  La           4         0.499994   0.750103   0.249881   x 
            x  La           5         0.250375   0.750067   0.500120   x 
            x  La           6         0.749605   0.499727   0.249964   x 
            x  La           7         0.499997   0.249899   0.750057   x 
            x  La           8        -0.000017   0.499568   0.500260   x 
            x  La           9         0.749760   0.750110   0.000041   x 
            x  La          10         0.250232   0.000104   0.249836   x 
            x  La          11         0.250348   0.249798  -0.000018   x 
            x  La          12         0.749690   0.000352   0.750252   x 
            x  La          13         0.500099   0.000178   0.499937   x 
            x  La          14         0.000027   0.749956   0.750242   x 
            x  La          15        -0.000035   0.249780   0.250002   x 
            x  La          16         0.499864   0.499910   0.000058   x 
            xxxxxxxxxxxxxxxxxxxxxxxxxxxxxxxxxxxxxxxxxxxxxxxxxxxxxxxxxxxx
 
 
                         No user defined ionic velocities
 
                           -------------------------------
                                   Details of Species
                           -------------------------------
 
                               Mass of species in AMU
                                    O   15.9994000
                                    Zr   91.2240000
                                    Sn  118.7100000
                                    La  138.9055000
 
                          Electric Quadrupole Moment (Barn)
                                    O   -0.0255800 Isotope 17
                                    Zr   -0.1760000 Isotope 91
                                    Sn    1.0000000 No Isotope Defined
                                    La    0.2000000 Isotope139
 
                          Files used for pseudopotentials:
                                    O 2|1.1|15|18|20|20:21(qc=7)
                                    Zr 3|2.1|7|8|9|40U:50:41:42
                                    Sn 3|2.2|7|8|9|50:51:42
                                    La 2|2.3|5|6|7|50U:60:51:52(qc=4.5)
 
                           -------------------------------
                              k-Points For BZ Sampling
                           -------------------------------
                       MP grid size for SCF calculation is  3  3  3
                            with an offset of   0.000  0.000  0.000
                       Number of kpoints used =   14
 
                           -------------------------------
                               Symmetry and Constraints
                           -------------------------------
 
                      Maximum deviation from symmetry =  0.00000         ANG
 
         There are no symmetry operations specified or generated for this cell
                      Number of ionic constraints     = 3
                      Point group of crystal =     1: C1, 1, 1
                      Space group of crystal =     1: P1, P 1
 
 
                         Centre of mass is constrained
             Set iprint > 1 for details of linear ionic constraints
 
                         Number of cell constraints= 0
                         Cell constraints are:  1 2 3 4 5 6
 
                         External pressure/stress (GPa)
                          0.00000   0.00000   0.00000
                                    0.00000   0.00000
                                              0.00000
  
+---------------- MEMORY AND SCRATCH DISK ESTIMATES PER PROCESS --------------+
|                                                     Memory          Disk    |
| Baseline code, static data and system overhead      843.0 MB         0.0 MB |
| BLAS internal memory storage                          0.0 MB         0.0 MB |
| Model and support data                              149.4 MB         0.0 MB |
| Electronic energy minimisation requirements          28.2 MB         0.0 MB |
| Force calculation requirements                        1.5 MB         0.0 MB |
| Stress calculation requirements                       1.8 MB         0.0 MB |
|                                               ----------------------------- |
| Approx. total storage required per process         1020.6 MB         0.0 MB |
|                                                                             |
| Requirements will fluctuate during execution and may exceed these estimates |
+-----------------------------------------------------------------------------+
Calculating finite basis set correction with  3 cut-off energies.
Calculating total energy with cut-off of  806.342eV.
------------------------------------------------------------------------ <-- SCF
SCF loop      Energy           Fermi           Energy gain       Timer   <-- SCF
                               energy          per atom          (sec)   <-- SCF
------------------------------------------------------------------------ <-- SCF
Initial  -5.53307059E+004  0.00000000E+000                        34.95  <-- SCF
      1  -6.37773916E+004  7.54483140E+000   9.59850657E+001      45.68  <-- SCF
      2  -6.63404531E+004  6.97418145E+000   2.91256980E+001      52.96  <-- SCF
      3  -6.64213374E+004  6.63391643E+000   9.19139503E-001      61.14  <-- SCF
      4  -6.64161518E+004  7.70755058E+000  -5.89271806E-002      70.73  <-- SCF
      5  -6.63106814E+004  7.16974714E+000  -1.19852655E+000      80.11  <-- SCF
      6  -6.63121616E+004  7.07573594E+000   1.68197776E-002      92.19  <-- SCF
      7  -6.63118738E+004  7.15591634E+000  -3.26972898E-003     102.18  <-- SCF
      8  -6.63119435E+004  7.16090685E+000   7.91449122E-004     115.49  <-- SCF
      9  -6.63119644E+004  7.16178880E+000   2.38268667E-004     126.61  <-- SCF
     10  -6.63119647E+004  7.15928953E+000   3.09796653E-006     137.18  <-- SCF
     11  -6.63119642E+004  7.16095211E+000  -6.14950495E-006     147.90  <-- SCF
     12  -6.63119645E+004  7.16106413E+000   3.27799425E-006     159.33  <-- SCF
     13  -6.63119645E+004  7.16071012E+000   2.03917442E-007     169.14  <-- SCF
     14  -6.63119645E+004  7.16052238E+000  -2.80834999E-007     178.98  <-- SCF
     15  -6.63119644E+004  7.16015323E+000  -9.37367687E-008     189.70  <-- SCF
     16  -6.63119644E+004  7.15998874E+000  -2.56879328E-009     198.80  <-- SCF
     17  -6.63119644E+004  7.15992797E+000  -2.38064760E-009     207.49  <-- SCF
     18  -6.63119644E+004  7.15986479E+000   1.37664146E-010     214.67  <-- SCF
     19  -6.63119644E+004  7.15982690E+000   3.68135582E-010     221.37  <-- SCF
------------------------------------------------------------------------ <-- SCF
 
Final energy, E             =  -66311.96444658     eV
Final free energy (E-TS)    =  -66311.96444658     eV
(energies not corrected for finite basis set)
 
NB est. 0K energy (E-0.5TS)      =  -66311.96444658     eV
 
Calculating total energy with cut-off of  811.342eV.
------------------------------------------------------------------------ <-- SCF
SCF loop      Energy           Fermi           Energy gain       Timer   <-- SCF
                               energy          per atom          (sec)   <-- SCF
------------------------------------------------------------------------ <-- SCF
Initial  -6.63119644E+004  0.00000000E+000                       223.48  <-- SCF
      1  -6.63119669E+004  7.15982230E+000   2.80885680E-005     232.06  <-- SCF
      2  -6.63119669E+004  7.15982230E+000   2.05441591E-010     238.29  <-- SCF
      3  -6.63119669E+004  7.15981801E+000   1.65035266E-008     244.67  <-- SCF
      4  -6.63119669E+004  7.15982547E+000   4.92300487E-010     251.02  <-- SCF
      5  -6.63119669E+004  7.15982378E+000  -1.63818928E-010     257.22  <-- SCF
------------------------------------------------------------------------ <-- SCF
 
Final energy, E             =  -66311.96691987     eV
Final free energy (E-TS)    =  -66311.96691987     eV
(energies not corrected for finite basis set)
 
NB est. 0K energy (E-0.5TS)      =  -66311.96691987     eV
 
Calculating total energy with cut-off of  816.342eV.
------------------------------------------------------------------------ <-- SCF
SCF loop      Energy           Fermi           Energy gain       Timer   <-- SCF
                               energy          per atom          (sec)   <-- SCF
------------------------------------------------------------------------ <-- SCF
Initial  -6.63119669E+004  0.00000000E+000                       259.35  <-- SCF
      1  -6.63119698E+004  7.15982569E+000   3.30040572E-005     267.95  <-- SCF
      2  -6.63119698E+004  7.15982569E+000   2.05300974E-010     274.19  <-- SCF
      3  -6.63119698E+004  7.15982086E+000   2.02816270E-008     280.46  <-- SCF
      4  -6.63119698E+004  7.15982308E+000   6.61322247E-010     286.69  <-- SCF
      5  -6.63119698E+004  7.15982179E+000  -1.08556405E-010     292.92  <-- SCF
------------------------------------------------------------------------ <-- SCF
 
Final energy, E             =  -66311.96982608     eV
Final free energy (E-TS)    =  -66311.96982608     eV
(energies not corrected for finite basis set)
 
NB est. 0K energy (E-0.5TS)      =  -66311.96982608     eV
 
 For future reference: finite basis dEtot/dlog(Ecut) =      -0.438199eV
 Total energy corrected for finite basis set =  -66311.969839 eV
 
  =====================================================================
  +       Calculation of Nuclear Magnetic Resonance Parameters        +
  + ================================================================= +
 
  Starting Calculation of Electric Field Gradient Tensors         |<-- EFG
  +---------------- MEMORY AND SCRATCH DISK ESTIMATES PER PROCESS --------------+
  |                                                     Memory          Disk    |
  | Model and support data                              151.1 MB         0.0 MB |
  | NMR EFG calculation requirements                     27.3 MB         0.0 MB |
  |                                               ----------------------------- |
  | Approx. total storage required per process          178.4 MB         0.0 MB |
  |                                                                             |
  | Requirements will fluctuate during execution and may exceed these estimates |
  +-----------------------------------------------------------------------------+
  Total Time for EFG Tensors                      33.09 sec       |<-- EFG
 
  Starting Calculation of Chemical Shielding Tensors              |<-- NMR
  +---------------- MEMORY AND SCRATCH DISK ESTIMATES PER PROCESS --------------+
  |                                                     Memory          Disk    |
  | Model and support data                              151.1 MB         0.0 MB |
  | NMR chemical shift calculation requirements          90.3 MB         0.0 MB |
  |                                               ----------------------------- |
  | Approx. total storage required per process          241.4 MB         0.0 MB |
  |                                                                             |
  | Requirements will fluctuate during execution and may exceed these estimates |
  +-----------------------------------------------------------------------------+
  Starting k-point:   1 of   1                                    |<-- NMR
  Total Time for step 1 of 6:                    269.14 sec       |<-- NMR
  Total Time for step 2 of 6:                    266.16 sec       |<-- NMR
  Total Time for step 3 of 6:                    266.41 sec       |<-- NMR
  Total Time for step 4 of 6:                    268.09 sec       |<-- NMR
  Total Time for step 5 of 6:                    267.27 sec       |<-- NMR
  Total Time for step 6 of 6:                    267.58 sec       |<-- NMR
  Total Time for Chemical Shielding Tensors     2391.58 sec       |<-- NMR
 
  ========================================================================
  |           Chemical Shielding and Electric Field Gradient Tensors     |
  |----------------------------------------------------------------------|
  |     Nucleus                Shielding tensor             EFG Tensor   |
  |  Species       Ion    Iso(ppm)   Aniso(ppm)  Asym    Cq(MHz)    Eta  |
  |    O           1     -317.33     -18.05      0.50   6.846E-02   0.48 |
  |    O           2     -317.86       9.14      0.99  -2.068E-02   0.42 |
  |    O           3     -317.77      11.79      0.59   5.691E-02   0.66 |
  |    O           4     -316.33       8.81      0.84   3.700E-02   0.97 |
  |    O           5     -318.52      -9.88      0.59   5.942E-02   0.75 |
  |    O           6     -317.44     -21.53      0.80  -7.441E-02   0.81 |
  |    O           7     -317.50     -12.84      0.26   2.458E-02   0.96 |
  |    O           8     -317.43       9.21      0.74   4.499E-02   0.37 |
  |    O           9     -163.25     156.24      0.75   1.060E+00   0.85 |
  |    O          10     -165.42     160.01      0.82   1.047E+00   0.89 |
  |    O          11      -84.98      81.98      0.16  -3.158E+00   0.05 |
  |    O          12      -14.77      60.48      0.43   3.891E+00   0.84 |
  |    O          13      -11.12      58.84      0.58   3.885E+00   0.83 |
  |    O          14     -161.21     154.42      0.75   1.067E+00   0.76 |
  |    O          15       -4.66      71.74      0.61   3.861E+00   0.85 |
  |    O          16      -84.06      87.15      0.20  -3.200E+00   0.07 |
  |    O          17      -88.20      86.85      0.11  -3.153E+00   0.09 |
  |    O          18      -11.49      56.90      0.56   3.866E+00   0.88 |
  |    O          19      -88.77      95.19      0.21  -3.203E+00   0.10 |
  |    O          20     -162.33     149.18      0.78   1.037E+00   0.80 |
  |    O          21      -13.64      56.75      0.61   3.850E+00   0.88 |
  |    O          22      -86.47      83.72      0.17  -3.127E+00   0.07 |
  |    O          23     -164.70     158.58      0.79   1.043E+00   0.88 |
  |    O          24     -164.13     162.86      0.78   1.062E+00   0.86 |
  |    O          25      -82.68      79.86      0.23  -3.134E+00   0.06 |
  |    O          26      -15.53      58.68      0.44   3.897E+00   0.84 |
  |    O          27      -82.19      78.98      0.16  -3.248E+00   0.11 |
  |    O          28     -165.84     161.06      0.83   1.045E+00   0.89 |
  |    O          29      -87.02      84.22      0.10  -3.216E+00   0.08 |
  |    O          30      -87.54      78.59      0.17  -3.190E+00   0.13 |
  |    O          31      -84.05      83.59      0.25  -3.191E+00   0.10 |
  |    O          32       -9.61      56.36      0.82   3.852E+00   0.88 |
  |    O          33      -91.90      80.55      0.14  -3.234E+00   0.11 |
  |    O          34       -7.32      70.00      0.55   3.867E+00   0.85 |
  |    O          35      -88.86      89.90      0.37  -3.108E+00   0.08 |
  |    O          36      -91.07      85.63      0.09  -3.234E+00   0.10 |
  |    O          37      -86.18      83.21      0.16  -3.222E+00   0.09 |
  |    O          38     -163.61     154.49      0.79   1.059E+00   0.79 |
  |    O          39      -84.18      85.38      0.17  -3.214E+00   0.08 |
  |    O          40     -161.37     145.89      0.77   1.061E+00   0.70 |
  |    O          41       -6.95      71.61      0.56   3.867E+00   0.86 |
  |    O          42      -91.64      91.52      0.20  -3.196E+00   0.10 |
  |    O          43      -87.99      87.19      0.07  -3.203E+00   0.08 |
  |    O          44     -164.36     151.12      0.73   1.031E+00   0.81 |
  |    O          45      -86.25      94.99      0.24  -3.229E+00   0.09 |
  |    O          46     -161.06     140.78      0.76   1.063E+00   0.63 |
  |    O          47      -86.82      78.51      0.03  -3.251E+00   0.11 |
  |    O          48      -87.25      83.55      0.17  -3.167E+00   0.10 |
  |    O          49      -86.33      82.11      0.06  -3.245E+00   0.10 |
  |    O          50      -84.85      81.52      0.28  -3.112E+00   0.08 |
  |    O          51     -160.71     147.20      0.79   1.088E+00   0.62 |
  |    O          52     -162.89     163.12      0.78   1.087E+00   0.83 |
  |    O          53      -90.40      82.45      0.14  -3.211E+00   0.10 |
  |    O          54     -162.56     155.77      0.80   1.030E+00   0.83 |
  |    O          55      -90.77      77.37      0.09  -3.224E+00   0.11 |
  |    O          56     -165.35     161.52      0.81   1.033E+00   0.90 |
  |    Zr          1     1627.58    -128.92      0.25  -3.760E+01   0.10 |
  |    Zr          2     1613.53    -118.90      0.07  -3.683E+01   0.07 |
  |    Zr          3     1609.21    -115.30      0.10  -3.783E+01   0.06 |
  |    Zr          4     1624.22    -121.51      0.14  -3.835E+01   0.05 |
  |    Zr          5     1628.94    -125.31      0.09  -3.733E+01   0.12 |
  |    Zr          6     1628.61    -121.13      0.05  -3.926E+01   0.02 |
  |    Zr          7     1627.74    -129.43      0.26  -3.727E+01   0.08 |
  |    Zr          8     1622.65    -125.38      0.16  -3.650E+01   0.06 |
  |    Zr          9     1627.53    -123.05      0.19  -3.969E+01   0.13 |
  |    Sn          1     3258.18     -67.05      0.04   1.295E+02   0.23 |
  |    Sn          2     3254.21     -62.19      0.31   1.237E+02   0.09 |
  |    Sn          3     3255.84     -58.80      0.29   1.250E+02   0.17 |
  |    Sn          4     3250.23     -47.27      0.48   1.267E+02   0.08 |
  |    Sn          5     3255.31     -58.61      0.32   1.260E+02   0.16 |
  |    Sn          6     3250.98     -49.65      0.30   1.318E+02   0.20 |
  |    Sn          7     3255.63     -59.91      0.30   1.259E+02   0.18 |
  |    La          1     4708.00     773.09      0.12  -8.400E+01   0.17 |
  |    La          2     4700.66     753.42      0.04  -8.214E+01   0.08 |
  |    La          3     4654.56     652.23      0.09  -7.983E+01   0.14 |
  |    La          4     4707.19     759.33      0.04  -8.424E+01   0.11 |
  |    La          5     4607.00     521.55      0.08  -7.720E+01   0.10 |
  |    La          6     4654.12     627.24      0.01  -7.951E+01   0.01 |
  |    La          7     4796.89     976.50      0.01  -8.914E+01   0.01 |
  |    La          8     4612.82     512.63      0.07  -7.848E+01   0.10 |
  |    La          9     4656.26     655.75      0.10  -7.981E+01   0.15 |
  |    La         10     4702.47     754.22      0.04  -8.218E+01   0.08 |
  |    La         11     4647.52     632.64      0.01  -7.814E+01   0.02 |
  |    La         12     4597.55     515.05      0.10  -7.547E+01   0.08 |
  |    La         13     4701.17     756.30      0.04  -8.250E+01   0.09 |
  |    La         14     4666.90     643.72      0.07  -8.271E+01   0.15 |
  |    La         15     4661.60     653.78      0.09  -8.184E+01   0.17 |
  |    La         16     4703.01     768.86      0.04  -8.311E+01   0.07 |
  ========================================================================
 
 *********************** Forces ***********************
 *                                                    *
 *            Cartesian components (eV/A)             *
 * -------------------------------------------------- *
 *                   x            y            z      *
 *                                                    *
 * O         1      0.00655      0.01197     -0.00744 *
 * O         2     -0.00780      0.00140      0.00383 *
 * O         3      0.00585     -0.00980      0.00076 *
 * O         4     -0.01767     -0.00662     -0.00655 *
 * O         5      0.00036     -0.01647      0.00089 *
 * O         6     -0.01682      0.01455      0.00191 *
 * O         7      0.00808     -0.00929      0.01247 *
 * O         8      0.01502      0.00323      0.00539 *
 * O         9      0.00626      0.01877     -0.00959 *
 * O        10      0.00511     -0.00440     -0.01210 *
 * O        11      0.00770     -0.01136      0.01135 *
 * O        12     -0.00516     -0.01611      0.00485 *
 * O        13      0.00423     -0.01865     -0.00095 *
 * O        14     -0.00627      0.00796     -0.00122 *
 * O        15      0.00975      0.02458      0.00319 *
 * O        16      0.01324     -0.00138      0.00058 *
 * O        17     -0.00066      0.01321      0.00264 *
 * O        18      0.00110     -0.01050      0.01503 *
 * O        19      0.01523     -0.00251     -0.01115 *
 * O        20      0.01759     -0.01094     -0.00492 *
 * O        21     -0.00016     -0.01595      0.00634 *
 * O        22     -0.01728     -0.00735     -0.00797 *
 * O        23     -0.00225      0.00592      0.00450 *
 * O        24     -0.00617      0.00529     -0.01314 *
 * O        25     -0.01441     -0.01166      0.00580 *
 * O        26      0.00097     -0.00469      0.01469 *
 * O        27     -0.01457      0.02369      0.00093 *
 * O        28     -0.00603      0.00864      0.00573 *
 * O        29     -0.00328     -0.01145      0.00046 *
 * O        30     -0.00170     -0.01331      0.00783 *
 * O        31     -0.00617      0.01189      0.00080 *
 * O        32     -0.01096      0.01170      0.01797 *
 * O        33      0.00808      0.01772      0.00016 *
 * O        34      0.01453     -0.01815     -0.00254 *
 * O        35     -0.00050      0.00336     -0.00008 *
 * O        36     -0.00488     -0.00474      0.00697 *
 * O        37      0.00187     -0.00140      0.00478 *
 * O        38      0.01062      0.00551      0.00505 *
 * O        39     -0.00484     -0.00895     -0.00317 *
 * O        40      0.00479     -0.00722     -0.01002 *
 * O        41     -0.01666      0.00151      0.01566 *
 * O        42     -0.00541     -0.01143     -0.01126 *
 * O        43      0.01663     -0.01592      0.00498 *
 * O        44     -0.00566      0.00985      0.00481 *
 * O        45      0.01926      0.00228     -0.01948 *
 * O        46      0.02424      0.01443     -0.00078 *
 * O        47      0.00636      0.00795     -0.01153 *
 * O        48     -0.01571     -0.00863      0.00169 *
 * O        49     -0.00509      0.01740     -0.00500 *
 * O        50     -0.00284     -0.00272      0.01015 *
 * O        51     -0.02244      0.00534     -0.01196 *
 * O        52     -0.00189      0.00480     -0.01557 *
 * O        53     -0.01360      0.00374      0.01658 *
 * O        54     -0.02060      0.00957      0.00466 *
 * O        55      0.01281     -0.01517     -0.00131 *
 * O        56      0.00590     -0.00607     -0.00640 *
 * Zr        1      0.00755     -0.00064      0.01245 *
 * Zr        2     -0.01933     -0.00503      0.00321 *
 * Zr        3      0.02252     -0.01663      0.02714 *
 * Zr        4      0.02174      0.03031     -0.00806 *
 * Zr        5     -0.00415     -0.00329     -0.01986 *
 * Zr        6     -0.00456     -0.00565      0.00826 *
 * Zr        7     -0.00687     -0.01978      0.00108 *
 * Zr        8     -0.00881      0.00533     -0.00280 *
 * Zr        9      0.00123      0.00937      0.01200 *
 * Sn        1      0.00529     -0.00474      0.00200 *
 * Sn        2      0.00150      0.00389     -0.00796 *
 * Sn        3      0.01354      0.00010     -0.01648 *
 * Sn        4     -0.02808      0.03753     -0.01084 *
 * Sn        5      0.00741      0.03306      0.00187 *
 * Sn        6      0.00828     -0.01563     -0.01519 *
 * Sn        7     -0.00121     -0.02426     -0.01003 *
 * La        1     -0.00244     -0.02653     -0.00389 *
 * La        2      0.01980      0.01783     -0.01211 *
 * La        3     -0.02768      0.02487     -0.02294 *
 * La        4      0.00313      0.00434     -0.00233 *
 * La        5     -0.02235     -0.01399      0.00717 *
 * La        6      0.01213      0.01457      0.01280 *
 * La        7     -0.00523      0.00448     -0.00308 *
 * La        8      0.00315      0.02020      0.00474 *
 * La        9      0.01718      0.00267      0.00466 *
 * La       10     -0.00729     -0.02095     -0.00029 *
 * La       11     -0.01803     -0.01363      0.00111 *
 * La       12      0.02326     -0.02205      0.01351 *
 * La       13     -0.00718     -0.01786     -0.01661 *
 * La       14      0.00219     -0.00766     -0.00177 *
 * La       15     -0.00103      0.00304      0.00688 *
 * La       16      0.00966      0.02332      0.00606 *
 *                                                    *
 ******************************************************
 
 ***************** Stress Tensor *****************
 *                                               *
 *          Cartesian components (GPa)           *
 * --------------------------------------------- *
 *             x             y             z     *
 *                                               *
 *  x      0.000210      0.024144     -0.001184  *
 *  y      0.024144      0.000619      0.005081  *
 *  z     -0.001184      0.005081      0.001587  *
 *                                               *
 *  Pressure:   -0.0008                          *
 *                                               *
 *************************************************
 
 Pseudo atomic calculation performed for O 2s2 2p4
 
 Converged in 39 iterations to a total energy of -432.6554 eV
 
 
 Pseudo atomic calculation performed for Zr 4s2 4p6 4d2 5s2
 
 Converged in 38 iterations to a total energy of -1285.4931 eV
 
 
 Pseudo atomic calculation performed for Sn 4d10 5s2 5p2
 
 Converged in 48 iterations to a total energy of -2044.5413 eV
 
 
 Pseudo atomic calculation performed for La 5s2 5p6 5d1 6s2
 
 Converged in 34 iterations to a total energy of -968.0373 eV
 
Charge spilling parameter for spin component 1 = 0.24%
 
     Atomic Populations (Mulliken)
     -----------------------------
Species   Ion     s      p      d      f     Total  Charge (e)
==============================================================
  O        1     1.87   5.00   0.00   0.00   6.87    -0.87
  O        2     1.87   5.00   0.00   0.00   6.87    -0.87
  O        3     1.87   5.00   0.00   0.00   6.87    -0.87
  O        4     1.87   5.00   0.00   0.00   6.87    -0.87
  O        5     1.87   5.00   0.00   0.00   6.87    -0.87
  O        6     1.87   5.00   0.00   0.00   6.87    -0.87
  O        7     1.87   5.00   0.00   0.00   6.87    -0.87
  O        8     1.87   5.00   0.00   0.00   6.87    -0.87
  O        9     1.86   4.94   0.00   0.00   6.80    -0.80
  O       10     1.86   4.95   0.00   0.00   6.80    -0.80
  O       11     1.87   4.99   0.00   0.00   6.86    -0.86
  O       12     1.88   5.02   0.00   0.00   6.91    -0.91
  O       13     1.88   5.02   0.00   0.00   6.91    -0.91
  O       14     1.86   4.94   0.00   0.00   6.80    -0.80
  O       15     1.88   5.02   0.00   0.00   6.91    -0.91
  O       16     1.87   4.99   0.00   0.00   6.86    -0.86
  O       17     1.87   4.99   0.00   0.00   6.86    -0.86
  O       18     1.88   5.02   0.00   0.00   6.91    -0.91
  O       19     1.87   4.99   0.00   0.00   6.86    -0.86
  O       20     1.86   4.94   0.00   0.00   6.80    -0.80
  O       21     1.88   5.02   0.00   0.00   6.91    -0.91
  O       22     1.87   4.99   0.00   0.00   6.86    -0.86
  O       23     1.86   4.94   0.00   0.00   6.80    -0.80
  O       24     1.86   4.95   0.00   0.00   6.80    -0.80
  O       25     1.87   4.99   0.00   0.00   6.86    -0.86
  O       26     1.88   5.02   0.00   0.00   6.91    -0.91
  O       27     1.87   4.99   0.00   0.00   6.86    -0.86
  O       28     1.86   4.95   0.00   0.00   6.80    -0.80
  O       29     1.87   4.99   0.00   0.00   6.86    -0.86
  O       30     1.87   4.99   0.00   0.00   6.85    -0.85
  O       31     1.87   4.99   0.00   0.00   6.85    -0.85
  O       32     1.88   5.02   0.00   0.00   6.91    -0.91
  O       33     1.87   4.99   0.00   0.00   6.86    -0.86
  O       34     1.88   5.02   0.00   0.00   6.91    -0.91
  O       35     1.87   4.98   0.00   0.00   6.85    -0.85
  O       36     1.87   4.99   0.00   0.00   6.86    -0.86
  O       37     1.87   4.99   0.00   0.00   6.86    -0.86
  O       38     1.86   4.95   0.00   0.00   6.80    -0.80
  O       39     1.87   4.99   0.00   0.00   6.86    -0.86
  O       40     1.86   4.95   0.00   0.00   6.80    -0.80
  O       41     1.88   5.02   0.00   0.00   6.91    -0.91
  O       42     1.87   4.99   0.00   0.00   6.86    -0.86
  O       43     1.87   4.99   0.00   0.00   6.86    -0.86
  O       44     1.86   4.94   0.00   0.00   6.80    -0.80
  O       45     1.87   4.99   0.00   0.00   6.86    -0.86
  O       46     1.86   4.95   0.00   0.00   6.80    -0.80
  O       47     1.87   4.99   0.00   0.00   6.86    -0.86
  O       48     1.87   4.99   0.00   0.00   6.86    -0.86
  O       49     1.87   4.99   0.00   0.00   6.86    -0.86
  O       50     1.87   4.99   0.00   0.00   6.85    -0.85
  O       51     1.86   4.95   0.00   0.00   6.80    -0.80
  O       52     1.85   4.95   0.00   0.00   6.80    -0.80
  O       53     1.87   4.99   0.00   0.00   6.86    -0.86
  O       54     1.86   4.94   0.00   0.00   6.80    -0.80
  O       55     1.87   4.99   0.00   0.00   6.86    -0.86
  O       56     1.86   4.94   0.00   0.00   6.80    -0.80
  Zr       1     2.37   6.48   1.92   0.00  10.78     1.22
  Zr       2     2.37   6.50   1.92   0.00  10.79     1.21
  Zr       3     2.37   6.49   1.92   0.00  10.78     1.22
  Zr       4     2.37   6.48   1.93   0.00  10.77     1.23
  Zr       5     2.37   6.49   1.92   0.00  10.78     1.22
  Zr       6     2.37   6.47   1.93   0.00  10.76     1.24
  Zr       7     2.37   6.49   1.92   0.00  10.78     1.22
  Zr       8     2.37   6.49   1.92   0.00  10.79     1.21
  Zr       9     2.37   6.47   1.93   0.00  10.77     1.23
  Sn       1     1.05   1.31  10.00   0.00  12.36     1.64
  Sn       2     1.05   1.31  10.00   0.00  12.36     1.64
  Sn       3     1.05   1.32  10.00   0.00  12.36     1.64
  Sn       4     1.05   1.31  10.00   0.00  12.36     1.64
  Sn       5     1.05   1.31  10.00   0.00  12.36     1.64
  Sn       6     1.05   1.31  10.00   0.00  12.36     1.64
  Sn       7     1.05   1.31  10.00   0.00  12.36     1.64
  La       1     2.05   6.16   1.19   0.00   9.40     1.60
  La       2     2.06   6.16   1.19   0.00   9.42     1.58
  La       3     2.08   6.18   1.19   0.00   9.45     1.55
  La       4     2.03   6.16   1.19   0.00   9.39     1.61
  La       5     2.10   6.19   1.19   0.00   9.48     1.52
  La       6     2.08   6.17   1.19   0.00   9.45     1.55
  La       7     1.99   6.13   1.20   0.00   9.32     1.68
  La       8     2.09   6.19   1.19   0.00   9.48     1.52
  La       9     2.08   6.17   1.19   0.00   9.44     1.56
  La      10     2.06   6.16   1.19   0.00   9.41     1.59
  La      11     2.08   6.17   1.19   0.00   9.44     1.56
  La      12     2.10   6.19   1.19   0.00   9.48     1.52
  La      13     2.04   6.16   1.19   0.00   9.40     1.60
  La      14     2.07   6.18   1.19   0.00   9.44     1.56
  La      15     2.05   6.18   1.19   0.00   9.42     1.58
  La      16     2.04   6.16   1.19   0.00   9.39     1.61
==============================================================
 
            Bond              Population      Length (A)
============================================================
         O 45 -- Sn 6              0.35        2.09933
         O 36 -- Sn 7              0.35        2.09978
         O 27 -- Sn 6              0.35        2.09978
         O 33 -- Sn 3              0.35        2.10010
         O 49 -- Sn 1              0.35        2.10097
         O 42 -- Sn 4              0.35        2.10130
         O 43 -- Sn 5              0.35        2.10172
         O 29 -- Sn 5              0.35        2.10225
         O 47 -- Sn 1              0.35        2.10291
         O 39 -- Sn 1              0.35        2.10293
         O 53 -- Sn 2              0.34        2.10294
         O 19 -- Sn 6              0.34        2.10333
         O 16 -- Sn 7              0.35        2.10358
         O 37 -- Sn 1              0.35        2.10502
         O 55 -- Sn 2              0.34        2.10507
         O 30 -- Sn 4              0.34        2.10548
         O 11 -- Sn 3              0.35        2.10637
         O 31 -- Sn 6              0.35        2.10674
         O 48 -- Sn 3              0.34        2.10688
         O 17 -- Sn 7              0.34        2.10839
         O 22 -- Sn 5              0.34        2.10891
         O 25 -- Sn 4              0.35        2.10897
         O 13 -- Sn 5              0.34        2.10951
         O 13 -- Sn 4              0.34        2.10969
         O 50 -- Sn 4              0.34        2.11093
         O 24 -- Zr 7              0.43        2.11101
         O 52 -- Zr 1              0.43        2.11107
         O 18 -- Sn 2              0.34        2.11109
         O 32 -- Sn 3              0.34        2.11165
         O 28 -- Zr 8              0.42        2.11172
         O 18 -- Sn 4              0.34        2.11174
         O 56 -- Zr 8              0.43        2.11214
         O 10 -- Zr 5              0.42        2.11240
         O 21 -- Sn 2              0.34        2.11267
         O 52 -- Zr 9              0.42        2.11278
         O 32 -- Sn 7              0.34        2.11283
         O 35 -- Sn 6              0.33        2.11316
         O 23 -- Zr 5              0.43        2.11321
         O 28 -- Zr 4              0.42        2.11335
         O 12 -- Sn 2              0.33        2.11357
         O 26 -- Sn 2              0.33        2.11368
         O 10 -- Zr 7              0.42        2.11415
         O 15 -- Sn 3              0.33        2.11441
         O 26 -- Sn 7              0.33        2.11459
         O 41 -- Sn 7              0.33        2.11467
         O 34 -- Sn 5              0.33        2.11485
         O 12 -- Sn 5              0.33        2.11499
         O 36 -- Zr 3              0.44        2.11504
         O 15 -- Sn 6              0.33        2.11509
         O 38 -- Zr 2              0.43        2.11535
         O 24 -- Zr 9              0.42        2.11581
         O 9  -- Zr 9              0.43        2.11598
         O 9  -- Zr 6              0.43        2.11617
         O 21 -- Sn 3              0.33        2.11618
         O 14 -- Zr 4              0.44        2.11656
         O 44 -- Zr 3              0.44        2.11682
         O 23 -- Zr 6              0.42        2.11735
         O 45 -- Zr 1              0.44        2.11789
         O 56 -- Zr 1              0.42        2.11794
         O 19 -- Zr 8              0.45        2.11811
         O 42 -- Zr 2              0.44        2.11838
         O 38 -- Zr 6              0.42        2.11851
         O 54 -- Zr 1              0.43        2.11859
         O 14 -- Zr 9              0.43        2.11884
         O 20 -- Zr 6              0.43        2.11899
         O 43 -- Zr 2              0.44        2.11933
         O 34 -- Sn 1              0.32        2.11941
         O 54 -- Zr 7              0.43        2.11946
         O 51 -- Zr 2              0.43        2.11947
         O 53 -- Zr 3              0.44        2.11968
         O 49 -- Zr 4              0.44        2.11987
         O 40 -- Zr 6              0.43        2.11996
         O 41 -- Sn 1              0.32        2.12000
         O 51 -- Zr 5              0.42        2.12037
         O 29 -- Zr 4              0.45        2.12073
         O 33 -- Zr 3              0.44        2.12104
         O 20 -- Zr 4              0.43        2.12140
         O 46 -- Zr 3              0.43        2.12191
         O 27 -- Zr 6              0.45        2.12195
         O 39 -- Zr 7              0.44        2.12203
         O 17 -- Zr 7              0.45        2.12227
         O 35 -- Zr 2              0.46        2.12236
         O 47 -- Zr 5              0.45        2.12271
         O 40 -- Zr 3              0.43        2.12287
         O 46 -- Zr 4              0.43        2.12302
         O 30 -- Zr 9              0.45        2.12369
         O 55 -- Zr 2              0.44        2.12389
         O 37 -- Zr 8              0.45        2.12428
         O 31 -- Zr 5              0.45        2.12438
         O 44 -- Zr 9              0.43        2.12452
         O 16 -- Zr 5              0.44        2.12541
         O 48 -- Zr 1              0.44        2.12565
         O 22 -- Zr 8              0.44        2.12638
         O 50 -- Zr 1              0.45        2.12640
         O 11 -- Zr 8              0.44        2.12981
         O 25 -- Zr 7              0.45        2.13077
         O 2  -- La 7              0.19        2.35623
         O 7  -- La 7              0.19        2.35677
         O 2  -- La 2              0.18        2.35870
         O 2  -- La 13             0.18        2.35882
         O 1  -- La 1              0.19        2.35889
         O 7  -- La 16             0.18        2.35904
         O 8  -- La 4              0.19        2.35918
         O 4  -- La 4              0.18        2.35940
         O 7  -- La 3              0.19        2.35967
         O 8  -- La 10             0.17        2.35975
         O 1  -- La 10             0.17        2.35987
         O 6  -- La 14             0.19        2.35990
         O 6  -- La 1              0.18        2.35995
         O 1  -- La 15             0.19        2.35998
         O 4  -- La 16             0.17        2.36010
         O 4  -- La 9              0.18        2.36073
         O 5  -- La 15             0.17        2.36085
         O 3  -- La 14             0.18        2.36095
         O 8  -- La 13             0.17        2.36099
         O 5  -- La 6              0.17        2.36119
         O 4  -- La 6              0.17        2.36127
         O 5  -- La 2              0.16        2.36165
         O 6  -- La 9              0.16        2.36182
         O 7  -- La 11             0.17        2.36184
         O 2  -- La 12             0.17        2.36211
         O 8  -- La 5              0.18        2.36226
         O 1  -- La 11             0.16        2.36234
         O 5  -- La 8              0.18        2.36237
         O 3  -- La 3              0.16        2.36295
         O 3  -- La 8              0.17        2.36315
         O 3  -- La 5              0.16        2.36323
         O 6  -- La 12             0.15        2.36462
         O 20 -- La 12             0.13        2.66367
         O 32 -- La 12             0.23        2.66660
         O 54 -- La 3              0.14        2.66669
         O 23 -- La 11             0.11        2.66703
         O 13 -- La 11             0.22        2.66723
         O 56 -- La 2              0.12        2.66845
         O 42 -- La 16             0.17        2.66874
         O 33 -- La 13             0.17        2.66906
         O 40 -- La 9              0.13        2.66948
         O 10 -- La 13             0.12        2.66953
         O 43 -- La 3              0.18        2.66956
         O 36 -- La 2              0.17        2.67052
         O 38 -- La 10             0.12        2.67062
         O 28 -- La 16             0.12        2.67078
         O 9  -- La 11             0.12        2.67087
         O 55 -- La 10             0.18        2.67113
         O 52 -- La 6              0.13        2.67123
         O 49 -- La 12             0.17        2.67127
         O 24 -- La 10             0.13        2.67138
         O 15 -- La 12             0.23        2.67191
         O 47 -- La 11             0.17        2.67192
         O 14 -- La 6              0.13        2.67205
         O 53 -- La 9              0.18        2.67258
         O 21 -- La 6              0.24        2.67278
         O 41 -- La 12             0.24        2.67285
         O 44 -- La 2              0.13        2.67303
         O 16 -- La 5              0.18        2.67306
         O 18 -- La 5              0.24        2.67313
         O 22 -- La 9              0.18        2.67340
         O 34 -- La 11             0.24        2.67359
         O 48 -- La 6              0.17        2.67359
         O 46 -- La 1              0.14        2.67362
         O 50 -- La 5              0.18        2.67403
         O 51 -- La 1              0.13        2.67405
         O 44 -- La 13             0.13        2.67417
         O 26 -- La 5              0.25        2.67445
         O 17 -- La 10             0.18        2.67445
         O 29 -- La 6              0.18        2.67449
         O 19 -- La 9              0.18        2.67452
         O 12 -- La 6              0.25        2.67455
         O 37 -- La 2              0.18        2.67479
         O 30 -- La 11             0.17        2.67482
         O 46 -- La 15             0.13        2.67485
         O 45 -- La 5              0.18        2.67542
         O 10 -- La 7              0.12        2.67544
         O 28 -- La 7              0.12        2.67553
         O 51 -- La 14             0.14        2.67603
         O 12 -- La 9              0.24        2.67621
         O 14 -- La 16             0.13        2.67638
         O 31 -- La 5              0.18        2.67642
         O 26 -- La 10             0.24        2.67657
         O 39 -- La 3              0.18        2.67662
         O 11 -- La 8              0.18        2.67675
         O 15 -- La 13             0.24        2.67683
         O 37 -- La 8              0.19        2.67690
         O 24 -- La 13             0.12        2.67697
         O 27 -- La 12             0.18        2.67703
         O 38 -- La 4              0.13        2.67703
         O 52 -- La 2              0.12        2.67730
         O 41 -- La 2              0.24        2.67734
         O 42 -- La 4              0.17        2.67766
         O 39 -- La 8              0.19        2.67769
         O 23 -- La 7              0.13        2.67770
         O 9  -- La 10             0.13        2.67777
         O 56 -- La 7              0.12        2.67784
         O 34 -- La 3              0.24        2.67796
         O 33 -- La 4              0.17        2.67809
         O 35 -- La 3              0.19        2.67810
         O 25 -- La 8              0.19        2.67814
         O 13 -- La 15             0.23        2.67901
         O 36 -- La 15             0.17        2.67901
         O 21 -- La 8              0.24        2.67911
         O 17 -- La 15             0.18        2.67920
         O 18 -- La 8              0.24        2.67942
         O 35 -- La 16             0.18        2.67956
         O 55 -- La 1              0.18        2.67973
         O 40 -- La 4              0.13        2.67976
         O 54 -- La 7              0.12        2.67995
         O 11 -- La 14             0.20        2.68031
         O 31 -- La 13             0.18        2.68033
         O 53 -- La 1              0.18        2.68036
         O 20 -- La 7              0.13        2.68048
         O 25 -- La 15             0.19        2.68055
         O 48 -- La 4              0.19        2.68058
         O 19 -- La 16             0.17        2.68063
         O 45 -- La 3              0.17        2.68147
         O 30 -- La 16             0.18        2.68168
         O 29 -- La 15             0.18        2.68168
         O 43 -- La 14             0.18        2.68186
         O 47 -- La 1              0.18        2.68245
         O 32 -- La 14             0.24        2.68264
         O 22 -- La 14             0.19        2.68288
         O 49 -- La 1              0.18        2.68297
         O 27 -- La 9              0.18        2.68330
         O 50 -- La 4              0.19        2.68493
         O 16 -- La 14             0.19        2.68581
         O 30 -- O 42             -0.06        2.79490
         O 26 -- O 55             -0.06        2.79533
         O 53 -- O 55             -0.06        2.79579
         O 36 -- O 41             -0.06        2.79604
         O 15 -- O 33             -0.06        2.79651
         O 33 -- O 48             -0.06        2.79653
         O 13 -- O 30             -0.06        2.79656
         O 12 -- O 53             -0.06        2.79667
         O 19 -- O 27             -0.06        2.79679
         O 31 -- O 45             -0.06        2.79686
         O 17 -- O 36             -0.06        2.79713
         O 34 -- O 43             -0.06        2.79734
         O 13 -- O 34             -0.05        2.79772
         O 16 -- O 26             -0.06        2.79821
         O 12 -- O 29             -0.06        2.79841
         O 34 -- O 47             -0.06        2.79893
         O 15 -- O 32             -0.05        2.79935
         O 32 -- O 41             -0.05        2.79951
         O 41 -- O 49             -0.06        2.79952
         O 15 -- O 27             -0.06        2.79998
         O 47 -- O 49             -0.06        2.80004
         O 37 -- O 39             -0.06        2.80011
         O 12 -- O 21             -0.05        2.80030
         O 18 -- O 26             -0.05        2.80100
         O 35 -- O 45             -0.06        2.80130
         O 19 -- O 35             -0.06        2.80146
         O 13 -- O 29             -0.06        2.80155
         O 42 -- O 50             -0.06        2.80242
         O 12 -- O 22             -0.06        2.80267
         O 17 -- O 26             -0.06        2.80270
         O 21 -- O 48             -0.06        2.80360
         O 18 -- O 50             -0.06        2.80474
         O 22 -- O 43             -0.06        2.80490
         O 18 -- O 21             -0.05        2.80521
         O 37 -- O 41             -0.06        2.80653
         O 11 -- O 21             -0.06        2.80690
         O 34 -- O 39             -0.06        2.80721
         O 15 -- O 31             -0.06        2.80823
         O 13 -- O 25             -0.06        2.80825
         O 18 -- O 25             -0.05        2.80930
         O 11 -- O 32             -0.05        2.80934
         O 10 -- O 24             -0.03        2.81085
         O 16 -- O 32             -0.05        2.81090
         O 52 -- O 56             -0.03        2.81097
         O 28 -- O 56             -0.03        2.81196
         O 9  -- O 23             -0.03        2.81244
         O 14 -- O 28             -0.03        2.81293
         O 10 -- O 23             -0.03        2.81327
         O 9  -- O 24             -0.03        2.81513
         O 14 -- O 52             -0.03        2.81542
         O 23 -- O 47             -0.03        2.81559
         O 19 -- O 28             -0.03        2.81673
         O 38 -- O 55             -0.03        2.81676
         O 37 -- O 56             -0.03        2.81762
         O 20 -- O 49             -0.03        2.81777
         O 33 -- O 44             -0.03        2.81789
         O 36 -- O 44             -0.03        2.81843
         O 40 -- O 53             -0.03        2.81850
         O 10 -- O 54             -0.03        2.81861
         O 54 -- O 56             -0.03        2.81862
         O 38 -- O 42             -0.03        2.81951
         O 17 -- O 24             -0.03        2.81958
         O 39 -- O 54             -0.03        2.81975
         O 44 -- O 52             -0.03        2.81980
         O 9  -- O 38             -0.03        2.81993
         O 20 -- O 28             -0.03        2.81998
         O 24 -- O 44             -0.03        2.82009
         O 48 -- O 52             -0.03        2.82015
         O 45 -- O 54             -0.03        2.82021
         O 10 -- O 31             -0.03        2.82043
         O 9  -- O 30             -0.03        2.82203
         O 20 -- O 27             -0.03        2.82315
         O 20 -- O 23             -0.03        2.82366
         O 35 -- O 42             -0.03        2.82408
         O 38 -- O 40             -0.03        2.82449
         O 51 -- O 55             -0.03        2.82547
         O 19 -- O 22             -0.03        2.82612
         O 35 -- O 43             -0.03        2.82639
         O 33 -- O 40             -0.03        2.82676
         O 14 -- O 29             -0.03        2.82727
         O 46 -- O 53             -0.03        2.82729
         O 36 -- O 46             -0.03        2.82748
         O 47 -- O 51             -0.03        2.82775
         O 43 -- O 51             -0.03        2.82966
         O 46 -- O 49             -0.03        2.82980
         O 45 -- O 50             -0.03        2.82994
         O 27 -- O 40             -0.03        2.83074
         O 14 -- O 30             -0.03        2.83075
         O 29 -- O 46             -0.03        2.83126
         O 16 -- O 51             -0.03        2.83252
         O 16 -- O 31             -0.03        2.83608
         O 11 -- O 37             -0.03        2.83720
         O 25 -- O 39             -0.03        2.83945
         O 17 -- O 25             -0.03        2.84013
         O 48 -- O 50             -0.03        2.84044
         O 11 -- O 22             -0.03        2.84098
============================================================
 
Initialisation time =     25.11 s
Calculation time    =   2709.24 s
Finalisation time   =      0.12 s
Total time          =   2734.47 s
Peak Memory Use     = 3708560 kB
  
Overall parallel efficiency rating: Good (73%)                                  
  
Data was distributed by:-
G-vector (64-way); efficiency rating: Good (75%)                                
k-point (14-way); efficiency rating: Excellent (95%)                            
