 +-------------------------------------------------+
 |                                                 |
 |      CCC   AA    SSS  TTTTT  EEEEE  PPPP        |
 |     C     A  A  S       T    E      P   P       |
 |     C     AAAA   SS     T    EEE    PPPP        |
 |     C     A  A     S    T    E      P           |
 |      CCC  A  A  SSS     T    EEEEE  P           |
 |                                                 |
 +-------------------------------------------------+
 |                                                 |
 | Welcome to Academic Release CASTEP version 16.1 |          
 | Ab Initio Total Energy Program                  |
 |                                                 |
 | Authors:                                        |
 | M. Segall, M. Probert, C. Pickard, P. Hasnip,   |
 | S. Clark, K. Refson, J. R. Yates, M. Payne      |
 |                                                 |
 | Contributors:                                   |
 | P. Lindan, P. Haynes, J. White, V. Milman,      |
 | N. Govind, M. Gibson, P. Tulip, V. Cocula,      |
 | B. Montanari, D. Quigley, M. Glover,            |
 | L. Bernasconi, A. Perlov, M. Plummer,           |
 | E. McNellis, J. Meyer, J. Gale, D. Jochym       |
 | J. Aarons, B. Walker, R. Gillen, D. Jones       |
 | T. Green, I. J. Bush, C. J. Armstrong,          |
 | E. J. Higgins, E. L. Brown, M. S. McFly         |
 |                                                 |
 | Copyright (c) 2000 - 2015                       |
 |                                                 |
 |     Distributed under the terms of an           |
 |     Agreement between the United Kingdom        |
 |     Car-Parrinello (UKCP) Consortium,           |
 |     Daresbury Laboratory and Accelrys, Inc.     |
 |                                                 |
 | Please cite                                     |
 |                                                 |
 |     "First principles methods using CASTEP"     |
 |                                                 |
 |         Zeitschrift fuer Kristallographie       |
 |           220(5-6) pp. 567-570 (2005)           |
 |                                                 |
 | S. J. Clark, M. D. Segall, C. J. Pickard,       |
 | P. J. Hasnip, M. J. Probert, K. Refson,         |
 | M. C. Payne                                     |
 |                                                 |
 |       in all publications arising from          |
 |              your use of CASTEP                 |
 |                                                 |
 +-------------------------------------------------+
 
 
 Compiled for linux_x86_64_cray-XT on Tue, 22 Mar 2022 15:42:52 +0000
 from code version b833c1ffcd7d+  Fri, 13 Jun 2014 17:24:31 +0100
 Compiler: Cray Fortran 11.0.4; Optimisation: intermediate
 MATHLIBS: LibSci (LAPACK version 3.6.1)
 FFT Lib : default
 Fundamental constants values: CODATA 2010
 
 Run started: Fri, 25 Mar 2022 21:28:33 +0000
 +-------------------------------------------------+
 |                                                 |
 |           N   N    M   M    RRRR                |
 |           NN  N    MM MM    R   R               |
 |           N N N    M M M    RRRR                |
 |           N  NN    M   M    R  R                |
 |           N   N    M   M    R   R               |
 |                                                 |
 +-------------------------------------------------+
 |                                                 |
 | Welcome to Materials Studio CASTEP-NMR          |
 |                                                 |
 | Authors:                                        |
 | J.R. Yates, C.J. Pickard, F. Mauri              |
 |                                                 |
 | Contributors:                                   |
 | T.F.G. Green, S.A. Joyce                        |
 |                                                 |
 | Copyright (c) 2004 - 2015                       |
 |                                                 |
 | Please cite the appropriate publications in all |
 | work arising from your use of CASTEP NMR.       |
 |                                                 |
 | For NMR Shielding Tensors cite:                 |
 |    "All-electron magnetic response with         |
 |    pseudopotentials: NMR chemical shifts",      |
 |    C. J. Pickard, F. Mauri;                     |
 |    Physical Review B63 245101 (2001), and       |
 |                                                 |
 |    "Calculation of NMR Chemical Shifts          |
 |    for extended systems using                   |
 |    Ultrasoft Pseudopotentials",                 |
 |    J. R. Yates, C. J. Pickard and F. Mauri      |
 |    Physical Review B76 024401 (2007)            |
 |                                                 |
 | For Electric Field Gradients cite:              |
 |   "Accurate First Principles Prediction of 17O  |
 |    NMR Parameters in SiO2: Assignment of the    |
 |    Zeolite Ferrierite Spectrum"                 |
 |    M. Profeta, F. Mauri and C. J. Pickard       |
 |    J. Amer. Chem. Soc. 125 541 (2003)           |
 |                                                 |
 | For Spin-Spin (J) Couplings cite:               |
 |   "A first principles theory of NMR J-coupling  |
 |   in solid-state systems"                       |
 |   S.A. Joyce, J.R. Yates, C.J. Pickard, F. Mauri|
 |   J. Chem. Phys. 127 204107 (2007)              |
 |                                                 |
 |   "Relativistic NMR J-coupling with ultrasoft   |
 |   pseudopotentials and the zeroth-order regular |
 |   approximation"                                |
 |   T.F.G. Green and J.R. Yates                   |
 |   J. Chem. Phys. 140 234106 (2014)              |
 |                                                 |
 +-------------------------------------------------+
 
 
 Atomic calculation performed for O: 1s2 2s2 2p4
 
 Converged in 44 iterations to an ae energy of -2040.855 eV
 
 
 Atomic calculation performed for O: 1s2 2s2 2p4
 
 Exceeded max iterations: converged to 0.000000062 eV
 
   ============================================================                
   | Pseudopotential Report - Date of generation 25-03-2022   |                
   ------------------------------------------------------------                
   | Element: O Ionic charge:  6.00 Level of theory: PBE      |                
   | Atomic Solver: ZORA (scalar)                             |                
   |                                                          |                
   |               Reference Electronic Structure             |                
   |         Orbital         Occupation         Energy        |                
   |            2s              2.000           -0.881        |                
   |            2p              4.000           -0.332        |                
   |                                                          |                
   |                 Pseudopotential Definition               |                
   |        Beta     l      e      Rc     scheme   norm       |                
   |          1      0   -0.881   1.100     qc      0         |                
   |          2      0    0.250   1.100     qc      0         |                
   |          3      1   -0.332   1.100     qc      0         |                
   |          4      1    0.250   1.100     qc      0         |                
   |         loc     2    0.000   1.100     pn      0         |                
   |                                                          |                
   | Augmentation charge Rinner = 0.769                       |                
   | Partial core correction Rc = 0.769                       |                
   ------------------------------------------------------------                
   | "2|1.1|15|18|20|20:21(qc=7)"                             |                
   ------------------------------------------------------------                
   |      Author: Chris J. Pickard, Cambridge University      |                
   ============================================================                
 
 Atomic calculation performed for Zr: 1s2 2s2 2p6 3s2 3p6 3d10 4s2 4p6 4d2 5s2
 
 Converged in 52 iterations to an ae energy of -97719.888 eV
 
 
 Atomic calculation performed for Zr: 1s2 2s2 2p6 3s2 3p6 3d10 4s2 4p6 4d2 5s2
 
 Exceeded max iterations: converged to 0.000000936 eV
 
 Warning: ion_atom_descreen_psp: negative charge density encountered
   ============================================================                
   | Pseudopotential Report - Date of generation 25-03-2022   |                
   ------------------------------------------------------------                
   | Element: Zr Ionic charge: 12.00 Level of theory: PBE     |                
   | Atomic Solver: ZORA (scalar)                             |                
   |                                                          |                
   |               Reference Electronic Structure             |                
   |         Orbital         Occupation         Energy        |                
   |            4s              2.000           -2.003        |                
   |            4p              6.000           -1.193        |                
   |            5s              2.000           -0.163        |                
   |            4d              2.000           -0.132        |                
   |                                                          |                
   |                 Pseudopotential Definition               |                
   |        Beta     l      e      Rc     scheme   norm       |                
   |          1      0   -2.003   2.105     qc      0         |                
   |          2      0   -0.163   2.105     qc      0         |                
   |          3      0    0.250   2.105     qc      0         |                
   |          4      1   -1.193   2.105     qc      0         |                
   |          5      1    0.250   2.105     qc      0         |                
   |          6      2   -0.132   2.105     qc      0         |                
   |          7      2    0.250   2.105     qc      0         |                
   |         loc     3    0.000   2.105     pn      0         |                
   |                                                          |                
   | Augmentation charge Rinner = 1.471                       |                
   | Partial core correction Rc = 1.471                       |                
   ------------------------------------------------------------                
   | "3|2.1|7|8|9|40U:50:41:42"                               |                
   ------------------------------------------------------------                
   |      Author: Chris J. Pickard, Cambridge University      |                
   ============================================================                
 
 Atomic calculation performed for Sn:
 1s2 2s2 2p6 3s2 3p6 3d10 4s2 4p6 4d10 5s2 5p2
 
 Converged in 58 iterations to an ae energy of -167539.320 eV
 
 
 Atomic calculation performed for Sn:
 1s2 2s2 2p6 3s2 3p6 3d10 4s2 4p6 4d10 5s2 5p2
 
 Exceeded max iterations: converged to -0.000000491 eV
 
   ============================================================                
   | Pseudopotential Report - Date of generation 25-03-2022   |                
   ------------------------------------------------------------                
   | Element: Sn Ionic charge: 14.00 Level of theory: PBE     |                
   | Atomic Solver: ZORA (scalar)                             |                
   |                                                          |                
   |               Reference Electronic Structure             |                
   |         Orbital         Occupation         Energy        |                
   |            4d             10.000           -0.950        |                
   |            5s              2.000           -0.388        |                
   |            5p              2.000           -0.136        |                
   |                                                          |                
   |                 Pseudopotential Definition               |                
   |        Beta     l      e      Rc     scheme   norm       |                
   |          1      0   -0.388   2.199     qc      0         |                
   |          2      0    0.250   2.199     qc      0         |                
   |          3      1   -0.136   2.199     qc      0         |                
   |          4      1    0.250   2.199     qc      0         |                
   |          5      2   -0.950   2.199     qc      0         |                
   |          6      2    0.250   2.199     qc      0         |                
   |         loc     3    0.000   2.199     pn      0         |                
   |                                                          |                
   | Augmentation charge Rinner = 1.537                       |                
   | Partial core correction Rc = 1.537                       |                
   ------------------------------------------------------------                
   | "3|2.2|7|8|9|50:51:42"                                   |                
   ------------------------------------------------------------                
   |      Author: Chris J. Pickard, Cambridge University      |                
   ============================================================                
 
 Atomic calculation performed for La:
 1s2 2s2 2p6 3s2 3p6 3d10 4s2 4p6 4d10 5s2 5p6 5d1 6s2
 
 Converged in 55 iterations to an ae energy of -230121.495 eV
 
 
 Atomic calculation performed for La:
 1s2 2s2 2p6 3s2 3p6 3d10 4s2 4p6 4d10 5s2 5p6 5d1 6s2
 
 Exceeded max iterations: converged to 0.000001134 eV
 
 Warning: ion_atom_descreen_psp: negative charge density encountered
   ============================================================                
   | Pseudopotential Report - Date of generation 25-03-2022   |                
   ------------------------------------------------------------                
   | Element: La Ionic charge: 11.00 Level of theory: PBE     |                
   | Atomic Solver: ZORA (scalar)                             |                
   |                                                          |                
   |               Reference Electronic Structure             |                
   |         Orbital         Occupation         Energy        |                
   |            5s              2.000           -1.430        |                
   |            5p              6.000           -0.823        |                
   |            6s              2.000           -0.135        |                
   |            5d              1.000           -0.114        |                
   |                                                          |                
   |                 Pseudopotential Definition               |                
   |        Beta     l      e      Rc     scheme   norm       |                
   |          1      0   -1.430   2.298     qc      0         |                
   |          2      0   -0.135   2.298     qc      0         |                
   |          3      0    0.250   2.298     qc      0         |                
   |          4      1   -0.823   2.298     qc      0         |                
   |          5      1    0.250   2.298     qc      0         |                
   |          6      2   -0.114   2.298     qc      0         |                
   |          7      2    0.250   2.298     qc      0         |                
   |         loc     2    0.000   2.298     pn      0         |                
   |                                                          |                
   | Augmentation charge Rinner = 1.606                       |                
   | Partial core correction Rc = 1.606                       |                
   ------------------------------------------------------------                
   | "2|2.3|5|6|7|50U:60:51:52(qc=4.5)"                       |                
   ------------------------------------------------------------                
   |      Author: Chris J. Pickard, Cambridge University      |                
   ============================================================                
 
 Pseudo atomic calculation performed for O 2s2 2p4
 
 Converged in 39 iterations to a total energy of -432.6554 eV
 
 
 Pseudo atomic calculation performed for Zr 4s2 4p6 4d2 5s2
 
 Converged in 38 iterations to a total energy of -1285.4931 eV
 
 
 Pseudo atomic calculation performed for Sn 4d10 5s2 5p2
 
 Converged in 48 iterations to a total energy of -2044.5413 eV
 
 
 Pseudo atomic calculation performed for La 5s2 5p6 5d1 6s2
 
 Converged in 34 iterations to a total energy of -968.0373 eV
 
 Calculation parallelised over 896 processes.
 Data is distributed by G-vector(64-way) and k-point(14-way)

 ************************************ Title ************************************
 nmr testing

 ***************************** General Parameters ******************************
  
 output verbosity                               : normal  (1)
 write checkpoint data to                       : 59.check
 type of calculation                            : Magnetic Resonance
 stress calculation                             : on
 density difference calculation                 : off
 electron localisation func (ELF) calculation   : off
 Hirshfeld analysis                             : off
 unlimited duration calculation
 timing information                             : on
 memory usage estimate                          : on
 write final potential to formatted file        : off
 write final density to formatted file          : off
 write BibTeX reference list                    : off
 write OTFG pseudopotential files               : on
 checkpoint writing                             : off
  
 output         length unit                     : A
 output           mass unit                     : amu
 output           time unit                     : ps
 output         charge unit                     : e
 output           spin unit                     : hbar/2
 output         energy unit                     : eV
 output          force unit                     : eV/A
 output       velocity unit                     : A/ps
 output       pressure unit                     : GPa
 output     inv_length unit                     : 1/A
 output      frequency unit                     : cm-1
 output force constant unit                     : eV/A**2
 output         volume unit                     : A**3
 output   IR intensity unit                     : (D/A)**2/amu
 output         dipole unit                     : D
 output         efield unit                     : eV/A/e
 output        entropy unit                     : J/mol/K
  
 wavefunctions paging                           : none
 random number generator seed                   : randomised (212833882)
 data distribution                              : optimal for this architecture
 optimization strategy                          : maximize speed(+++)

 *********************** Exchange-Correlation Parameters ***********************
  
 using functional                               : Perdew Burke Ernzerhof
 relativistic treatment                         : ZORA
 DFT+D: Semi-empirical dispersion correction    : off

 ************************* Pseudopotential Parameters **************************
  
 pseudopotential representation                 : reciprocal space
 <beta|phi> representation                      : reciprocal space
 spin-orbit coupling                            : off

 **************************** Basis Set Parameters *****************************
  
 plane wave basis set cut-off                   :   816.3416   eV
 size of standard grid                          :     1.7500
 size of   fine   gmax                          :    25.6161   1/A
 finite basis set correction                    : automatic
 number of sample energies                      :          3
           sample  spacing                      :     5.0000   eV

 **************************** Electronic Parameters ****************************
  
 number of  electrons                           :  718.0    
 net charge of system                           :  0.000    
 treating system as non-spin-polarized
 number of bands                                :        431

 ********************* Electronic Minimization Parameters **********************
  
 Method: Treating system as metallic with density mixing treatment of electrons,
         and number of  SD  steps               :          1
         and number of  CG  steps               :          4
  
 total energy / atom convergence tol.           : 0.1000E-08   eV
 eigen-energy convergence tolerance             : 0.2451E-09   eV
 max force / atom convergence tol.              : ignored
 convergence tolerance window                   :          3   cycles
 max. number of SCF cycles                      :         50
 number of fixed-spin iterations                :         10
 smearing scheme                                : Gaussian
 smearing width                                 : 0.2000       eV
 Fermi energy convergence tolerance             : 0.2721E-13   eV
 periodic dipole correction                     : NONE

 ************************** Density Mixing Parameters **************************
  
 density-mixing scheme                          : Broyden
 max. length of mixing history                  :         20
 charge density mixing amplitude                : 0.8000    
 cut-off energy for mixing                      :  816.3       eV

 *********************** Population Analysis Parameters ************************
  
 Population analysis with cutoff                :  3.000       A

 ************************ Magnetic Resonance Parameters ************************
  
 Magnetic Resonance Property                    : Chemical Shielding + EFG
 Position Operator Method                       : crystal
 max. number of MagRes CG steps                 :        250
 convergence tolerance window                   :          2   cycles
 energy convergence tolerance                   : 0.1000E-11   eV
 band convergence tolerance                     : 0.1000E-08   eV

 *******************************************************************************
  
 
                           -------------------------------
                                      Unit Cell
                           -------------------------------
        Real Lattice(A)                      Reciprocal Lattice(1/A)
  10.9054671   0.0026823  -0.0044761        0.5761502  -0.0001396   0.0002362
   0.0026439  10.9020959  -0.0081200       -0.0001416   0.5763286   0.0004299
  -0.0044717  -0.0081330  10.9025071        0.0002364   0.0004292   0.5763069
 
                       Lattice parameters(A)       Cell Angles
                    a =   10.905468          alpha =   90.085421
                    b =   10.902099          beta  =   90.047028
                    c =   10.902511          gamma =   89.971995
 
                       Current cell volume = 1296.224750       A**3
 
                           -------------------------------
                                     Cell Contents
                           -------------------------------
                         Total number of ions in cell =   88
                      Total number of species in cell =    4
                        Max number of any one species =   56
 
            xxxxxxxxxxxxxxxxxxxxxxxxxxxxxxxxxxxxxxxxxxxxxxxxxxxxxxxxxxxx
            x  Element    Atom        Fractional coordinates of atoms  x
            x            Number           u          v          w      x
            x----------------------------------------------------------x
            x  O            1         0.125078   0.125002   0.124957   x 
            x  O            2         0.624815   0.124968   0.624825   x 
            x  O            3         0.125309   0.625147   0.625055   x 
            x  O            4         0.624957   0.625027   0.125058   x 
            x  O            5         0.874691   0.374853   0.374945   x 
            x  O            6         0.874922   0.874998   0.875043   x 
            x  O            7         0.375043   0.374973   0.874942   x 
            x  O            8         0.375185   0.875032   0.375175   x 
            x  O            9         0.420933   0.124617   0.124145   x 
            x  O           10         0.330089   0.125137   0.625165   x 
            x  O           11         0.829247   0.624127   0.626000   x 
            x  O           12         0.919620   0.625117   0.124430   x 
            x  O           13         0.125069   0.419730   0.124298   x 
            x  O           14         0.624959   0.329823   0.124680   x 
            x  O           15         0.625398   0.830000   0.625224   x 
            x  O           16         0.124546   0.920439   0.623622   x 
            x  O           17         0.124421   0.124065   0.420493   x 
            x  O           18         0.125245   0.625723   0.330324   x 
            x  O           19         0.626530   0.624563   0.829238   x 
            x  O           20         0.624559   0.124667   0.920589   x 
            x  O           21         0.875990   0.670439   0.374132   x 
            x  O           22         0.874931   0.580270   0.875702   x 
            x  O           23         0.375383   0.079273   0.875701   x 
            x  O           24         0.374602   0.170000   0.374776   x 
            x  O           25         0.170753   0.375873   0.374000   x 
            x  O           26         0.080218   0.874477   0.375049   x 
            x  O           27         0.579067   0.875383   0.875855   x 
            x  O           28         0.670063   0.375158   0.874259   x 
            x  O           29         0.875925   0.376060   0.079945   x 
            x  O           30         0.373470   0.375437   0.170762   x 
            x  O           31         0.374667   0.874909   0.669963   x 
            x  O           32         0.875579   0.875935   0.579507   x 
            x  O           33         0.669911   0.874863   0.374835   x 
            x  O           34         0.080380   0.374883   0.875570   x 
            x  O           35         0.375041   0.670177   0.875320   x 
            x  O           36         0.875454   0.079561   0.376378   x 
            x  O           37         0.874755   0.374277   0.669676   x 
            x  O           38         0.375441   0.875333   0.079411   x 
            x  O           39         0.124010   0.329561   0.625868   x 
            x  O           40         0.624617   0.920727   0.124299   x 
            x  O           41         0.919782   0.125523   0.624951   x 
            x  O           42         0.329937   0.624842   0.125741   x 
            x  O           43         0.124075   0.623940   0.920055   x 
            x  O           44         0.625333   0.125091   0.330037   x 
            x  O           45         0.420271   0.625310   0.624559   x 
            x  O           46         0.829710   0.125138   0.125065   x 
            x  O           47         0.124755   0.126561   0.829462   x 
            x  O           48         0.624934   0.625256   0.420201   x 
            x  O           49         0.875111   0.170156   0.873726   x 
            x  O           50         0.373669   0.579411   0.374183   x 
            x  O           51         0.170290   0.874862   0.874935   x 
            x  O           52         0.579729   0.374690   0.375441   x 
            x  O           53         0.875245   0.873439   0.170538   x 
            x  O           54         0.375066   0.374744   0.579799   x 
            x  O           55         0.124889   0.829844   0.126274   x 
            x  O           56         0.626331   0.420589   0.625817   x 
            x  Zr           1         0.500000   0.500000   0.500000   x 
            x  Zr           2         0.249506   0.749391   0.000368   x 
            x  Zr           3         0.750175  -0.000321   0.250464   x 
            x  Zr           4         0.750494   0.250609  -0.000368   x 
            x  Zr           5         0.249825   0.000321   0.749536   x 
            x  Zr           6         0.249840   0.249604   0.500196   x 
            x  Zr           7         0.750160   0.750396   0.499804   x 
            x  Zr           8         0.499861   0.250103   0.249989   x 
            x  Zr           9         0.500139   0.749897   0.750011   x 
            x  Sn           1        -0.000470   0.250486   0.750387   x 
            x  Sn           2         0.000470   0.749514   0.249613   x 
            x  Sn           3         0.500000   0.000000  -0.000000   x 
            x  Sn           4         0.751069   0.498980   0.750983   x 
            x  Sn           5         0.248931   0.501020   0.249017   x 
            x  Sn           6        -0.000000   0.500000  -0.000000   x 
            x  Sn           7        -0.000000  -0.000000   0.500000   x 
            x  La           1        -0.000000  -0.000000  -0.000000   x 
            x  La           2         0.749634   0.249926   0.499904   x 
            x  La           3         0.250309   0.499998   0.749832   x 
            x  La           4         0.499887   0.750020   0.250016   x 
            x  La           5         0.250366   0.750074   0.500096   x 
            x  La           6         0.749691   0.500002   0.250168   x 
            x  La           7         0.500113   0.249980   0.749984   x 
            x  La           8        -0.000000   0.500000   0.500000   x 
            x  La           9         0.749662   0.750223   0.000052   x 
            x  La          10         0.250260  -0.000071   0.250015   x 
            x  La          11         0.250338   0.249777  -0.000052   x 
            x  La          12         0.749740   0.000071   0.749985   x 
            x  La          13         0.500000   0.000000   0.500000   x 
            x  La          14         0.000079   0.750213   0.749845   x 
            x  La          15        -0.000079   0.249787   0.250155   x 
            x  La          16         0.500000   0.500000  -0.000000   x 
            xxxxxxxxxxxxxxxxxxxxxxxxxxxxxxxxxxxxxxxxxxxxxxxxxxxxxxxxxxxx
 
 
                         No user defined ionic velocities
 
                           -------------------------------
                                   Details of Species
                           -------------------------------
 
                               Mass of species in AMU
                                    O   15.9994000
                                    Zr   91.2240000
                                    Sn  118.7100000
                                    La  138.9055000
 
                          Electric Quadrupole Moment (Barn)
                                    O   -0.0255800 Isotope 17
                                    Zr   -0.1760000 Isotope 91
                                    Sn    1.0000000 No Isotope Defined
                                    La    0.2000000 Isotope139
 
                          Files used for pseudopotentials:
                                    O 2|1.1|15|18|20|20:21(qc=7)
                                    Zr 3|2.1|7|8|9|40U:50:41:42
                                    Sn 3|2.2|7|8|9|50:51:42
                                    La 2|2.3|5|6|7|50U:60:51:52(qc=4.5)
 
                           -------------------------------
                              k-Points For BZ Sampling
                           -------------------------------
                       MP grid size for SCF calculation is  3  3  3
                            with an offset of   0.000  0.000  0.000
                       Number of kpoints used =   14
 
                           -------------------------------
                               Symmetry and Constraints
                           -------------------------------
 
                      Maximum deviation from symmetry =  0.00000         ANG
 
         There are no symmetry operations specified or generated for this cell
                      Number of ionic constraints     = 3
                      Point group of crystal =     1: C1, 1, 1
                      Space group of crystal =     2: P-1, -P 1
 
 
                         Centre of mass is constrained
             Set iprint > 1 for details of linear ionic constraints
 
                         Number of cell constraints= 0
                         Cell constraints are:  1 2 3 4 5 6
 
                         External pressure/stress (GPa)
                          0.00000   0.00000   0.00000
                                    0.00000   0.00000
                                              0.00000
  
+---------------- MEMORY AND SCRATCH DISK ESTIMATES PER PROCESS --------------+
|                                                     Memory          Disk    |
| Baseline code, static data and system overhead      843.0 MB         0.0 MB |
| BLAS internal memory storage                          0.0 MB         0.0 MB |
| Model and support data                              149.4 MB         0.0 MB |
| Electronic energy minimisation requirements          28.2 MB         0.0 MB |
| Force calculation requirements                        1.5 MB         0.0 MB |
| Stress calculation requirements                       1.8 MB         0.0 MB |
|                                               ----------------------------- |
| Approx. total storage required per process         1020.6 MB         0.0 MB |
|                                                                             |
| Requirements will fluctuate during execution and may exceed these estimates |
+-----------------------------------------------------------------------------+
Calculating finite basis set correction with  3 cut-off energies.
Calculating total energy with cut-off of  806.342eV.
------------------------------------------------------------------------ <-- SCF
SCF loop      Energy           Fermi           Energy gain       Timer   <-- SCF
                               energy          per atom          (sec)   <-- SCF
------------------------------------------------------------------------ <-- SCF
Initial  -5.53120338E+004  0.00000000E+000                        34.99  <-- SCF
      1  -6.37713415E+004  7.54647443E+000   9.61284969E+001      45.65  <-- SCF
      2  -6.63402489E+004  6.92476088E+000   2.91921293E+001      52.95  <-- SCF
      3  -6.64213069E+004  6.64842278E+000   9.21113021E-001      61.06  <-- SCF
      4  -6.64160702E+004  7.69260455E+000  -5.95079031E-002      70.55  <-- SCF
      5  -6.63106426E+004  7.18243721E+000  -1.19804027E+000      79.91  <-- SCF
      6  -6.63121458E+004  7.09302699E+000   1.70810687E-002      92.01  <-- SCF
      7  -6.63118560E+004  7.16720552E+000  -3.29257759E-003     101.86  <-- SCF
      8  -6.63119262E+004  7.17370732E+000   7.97823821E-004     114.95  <-- SCF
      9  -6.63119474E+004  7.17574445E+000   2.40921818E-004     126.15  <-- SCF
     10  -6.63119479E+004  7.17370740E+000   5.65870794E-006     136.73  <-- SCF
     11  -6.63119474E+004  7.17556102E+000  -5.90033425E-006     147.24  <-- SCF
     12  -6.63119477E+004  7.17580213E+000   3.59352329E-006     158.68  <-- SCF
     13  -6.63119478E+004  7.17558474E+000   2.95188490E-007     168.49  <-- SCF
     14  -6.63119477E+004  7.17542860E+000  -2.07009050E-007     178.22  <-- SCF
     15  -6.63119477E+004  7.17511009E+000  -7.16621330E-008     188.77  <-- SCF
     16  -6.63119477E+004  7.17495091E+000  -4.00182221E-009     197.90  <-- SCF
     17  -6.63119477E+004  7.17489180E+000  -2.49243820E-009     206.49  <-- SCF
     18  -6.63119477E+004  7.17482918E+000  -2.86858895E-011     213.66  <-- SCF
     19  -6.63119477E+004  7.17478885E+000   3.19482064E-010     220.27  <-- SCF
------------------------------------------------------------------------ <-- SCF
 
Final energy, E             =  -66311.94772668     eV
Final free energy (E-TS)    =  -66311.94772668     eV
(energies not corrected for finite basis set)
 
NB est. 0K energy (E-0.5TS)      =  -66311.94772668     eV
 
Calculating total energy with cut-off of  811.342eV.
------------------------------------------------------------------------ <-- SCF
SCF loop      Energy           Fermi           Energy gain       Timer   <-- SCF
                               energy          per atom          (sec)   <-- SCF
------------------------------------------------------------------------ <-- SCF
Initial  -6.63119477E+004  0.00000000E+000                       222.38  <-- SCF
      1  -6.63119502E+004  7.17478436E+000   2.80038111E-005     230.85  <-- SCF
      2  -6.63119502E+004  7.17478436E+000   2.01644929E-010     237.05  <-- SCF
      3  -6.63119502E+004  7.17477881E+000   1.64043915E-008     243.33  <-- SCF
      4  -6.63119502E+004  7.17478826E+000   5.28860934E-010     249.64  <-- SCF
      5  -6.63119502E+004  7.17478594E+000  -1.67053121E-010     255.79  <-- SCF
------------------------------------------------------------------------ <-- SCF
 
Final energy, E             =  -66311.95019251     eV
Final free energy (E-TS)    =  -66311.95019251     eV
(energies not corrected for finite basis set)
 
NB est. 0K energy (E-0.5TS)      =  -66311.95019251     eV
 
Calculating total energy with cut-off of  816.342eV.
------------------------------------------------------------------------ <-- SCF
SCF loop      Energy           Fermi           Energy gain       Timer   <-- SCF
                               energy          per atom          (sec)   <-- SCF
------------------------------------------------------------------------ <-- SCF
Initial  -6.63119502E+004  0.00000000E+000                       257.91  <-- SCF
      1  -6.63119531E+004  7.17478746E+000   3.33543389E-005     266.54  <-- SCF
      2  -6.63119531E+004  7.17478746E+000   2.07269614E-010     272.81  <-- SCF
      3  -6.63119531E+004  7.17478350E+000   2.07003847E-008     279.02  <-- SCF
      4  -6.63119531E+004  7.17478463E+000   6.82414813E-010     285.25  <-- SCF
      5  -6.63119531E+004  7.17478385E+000  -9.36509923E-011     291.47  <-- SCF
------------------------------------------------------------------------ <-- SCF
 
Final energy, E             =  -66311.95312958     eV
Final free energy (E-TS)    =  -66311.95312958     eV
(energies not corrected for finite basis set)
 
NB est. 0K energy (E-0.5TS)      =  -66311.95312958     eV
 
 For future reference: finite basis dEtot/dlog(Ecut) =      -0.438586eV
 Total energy corrected for finite basis set =  -66311.953121 eV
 
  =====================================================================
  +       Calculation of Nuclear Magnetic Resonance Parameters        +
  + ================================================================= +
 
  Starting Calculation of Electric Field Gradient Tensors         |<-- EFG
  +---------------- MEMORY AND SCRATCH DISK ESTIMATES PER PROCESS --------------+
  |                                                     Memory          Disk    |
  | Model and support data                              151.1 MB         0.0 MB |
  | NMR EFG calculation requirements                     27.3 MB         0.0 MB |
  |                                               ----------------------------- |
  | Approx. total storage required per process          178.4 MB         0.0 MB |
  |                                                                             |
  | Requirements will fluctuate during execution and may exceed these estimates |
  +-----------------------------------------------------------------------------+
  Total Time for EFG Tensors                      29.05 sec       |<-- EFG
 
  Starting Calculation of Chemical Shielding Tensors              |<-- NMR
  +---------------- MEMORY AND SCRATCH DISK ESTIMATES PER PROCESS --------------+
  |                                                     Memory          Disk    |
  | Model and support data                              151.1 MB         0.0 MB |
  | NMR chemical shift calculation requirements          90.3 MB         0.0 MB |
  |                                               ----------------------------- |
  | Approx. total storage required per process          241.4 MB         0.0 MB |
  |                                                                             |
  | Requirements will fluctuate during execution and may exceed these estimates |
  +-----------------------------------------------------------------------------+
  Starting k-point:   1 of   1                                    |<-- NMR
  Total Time for step 1 of 6:                    270.40 sec       |<-- NMR
  Total Time for step 2 of 6:                    271.71 sec       |<-- NMR
  Total Time for step 3 of 6:                    271.87 sec       |<-- NMR
  Total Time for step 4 of 6:                    271.14 sec       |<-- NMR
  Total Time for step 5 of 6:                    270.31 sec       |<-- NMR
  Total Time for step 6 of 6:                    269.18 sec       |<-- NMR
  Total Time for Chemical Shielding Tensors     2359.22 sec       |<-- NMR
 
  ========================================================================
  |           Chemical Shielding and Electric Field Gradient Tensors     |
  |----------------------------------------------------------------------|
  |     Nucleus                Shielding tensor             EFG Tensor   |
  |  Species       Ion    Iso(ppm)   Aniso(ppm)  Asym    Cq(MHz)    Eta  |
  |    O           1     -316.80     -17.31      0.84   6.875E-02   0.42 |
  |    O           2     -317.52     -12.41      0.29   3.048E-02   0.98 |
  |    O           3     -318.89     -13.15      0.16   6.775E-02   0.60 |
  |    O           4     -316.55     -12.86      0.59   5.266E-02   0.45 |
  |    O           5     -318.89     -13.15      0.16   6.775E-02   0.60 |
  |    O           6     -316.80     -17.31      0.84   6.875E-02   0.42 |
  |    O           7     -316.55     -12.86      0.59   5.266E-02   0.45 |
  |    O           8     -317.52     -12.41      0.29   3.048E-02   0.98 |
  |    O           9      -83.79      93.38      0.30  -3.200E+00   0.10 |
  |    O          10     -165.31     159.75      0.83   1.049E+00   0.89 |
  |    O          11      -83.36      81.67      0.24  -3.121E+00   0.05 |
  |    O          12      -14.64      59.44      0.47   3.893E+00   0.84 |
  |    O          13      -12.81      57.27      0.48   3.906E+00   0.84 |
  |    O          14     -161.47     152.71      0.79   1.071E+00   0.71 |
  |    O          15     -162.32     155.83      0.81   1.048E+00   0.81 |
  |    O          16      -86.40      79.35      0.03  -3.272E+00   0.10 |
  |    O          17      -85.35      87.55      0.18  -3.184E+00   0.08 |
  |    O          18      -11.94      57.33      0.54   3.902E+00   0.84 |
  |    O          19      -84.01      84.12      0.16  -3.148E+00   0.09 |
  |    O          20      -86.42      86.31      0.38  -3.131E+00   0.09 |
  |    O          21      -86.53      85.31      0.08  -3.175E+00   0.07 |
  |    O          22      -12.81      57.27      0.48   3.906E+00   0.84 |
  |    O          23      -86.13      90.58      0.26  -3.205E+00   0.11 |
  |    O          24     -162.32     155.83      0.81   1.048E+00   0.81 |
  |    O          25      -83.36      81.67      0.24  -3.121E+00   0.05 |
  |    O          26       -7.85      69.82      0.56   3.868E+00   0.85 |
  |    O          27      -83.79      93.38      0.30  -3.200E+00   0.10 |
  |    O          28      -90.98      92.70      0.25  -3.177E+00   0.10 |
  |    O          29      -89.71      81.60      0.06  -3.234E+00   0.08 |
  |    O          30      -84.01      84.12      0.16  -3.148E+00   0.09 |
  |    O          31     -164.09     159.77      0.77   1.029E+00   0.89 |
  |    O          32      -85.35      87.55      0.18  -3.184E+00   0.08 |
  |    O          33     -165.31     159.75      0.83   1.049E+00   0.89 |
  |    O          34      -14.64      59.44      0.47   3.893E+00   0.84 |
  |    O          35     -161.47     152.71      0.79   1.071E+00   0.71 |
  |    O          36      -86.40      79.35      0.03  -3.272E+00   0.10 |
  |    O          37      -11.93      57.33      0.54   3.902E+00   0.84 |
  |    O          38      -86.42      86.30      0.38  -3.131E+00   0.09 |
  |    O          39      -86.53      85.31      0.08  -3.175E+00   0.07 |
  |    O          40      -86.14      90.58      0.26  -3.205E+00   0.11 |
  |    O          41       -7.85      69.82      0.56   3.868E+00   0.85 |
  |    O          42      -90.98      92.70      0.25  -3.177E+00   0.10 |
  |    O          43      -89.71      81.61      0.06  -3.234E+00   0.08 |
  |    O          44     -164.09     159.77      0.77   1.029E+00   0.89 |
  |    O          45     -162.59     161.53      0.77   1.089E+00   0.82 |
  |    O          46     -160.69     146.44      0.79   1.089E+00   0.62 |
  |    O          47      -85.93      85.82      0.12  -3.177E+00   0.09 |
  |    O          48     -161.72     156.97      0.79   1.070E+00   0.77 |
  |    O          49      -88.75      85.83      0.08  -3.185E+00   0.08 |
  |    O          50      -87.20      74.38      0.19  -3.218E+00   0.13 |
  |    O          51     -160.69     146.44      0.79   1.089E+00   0.62 |
  |    O          52     -162.59     161.53      0.77   1.089E+00   0.82 |
  |    O          53      -85.93      85.82      0.12  -3.177E+00   0.09 |
  |    O          54     -161.72     156.97      0.79   1.070E+00   0.77 |
  |    O          55      -88.75      85.83      0.08  -3.185E+00   0.08 |
  |    O          56      -87.20      74.37      0.19  -3.218E+00   0.13 |
  |    Zr          1     1632.73    -131.38      0.26  -3.857E+01   0.20 |
  |    Zr          2     1613.02    -117.45      0.10  -3.669E+01   0.07 |
  |    Zr          3     1628.03    -125.40      0.13  -3.755E+01   0.08 |
  |    Zr          4     1613.02    -117.45      0.10  -3.669E+01   0.07 |
  |    Zr          5     1628.03    -125.40      0.13  -3.755E+01   0.08 |
  |    Zr          6     1628.39    -127.76      0.22  -3.711E+01   0.05 |
  |    Zr          7     1628.39    -127.76      0.22  -3.711E+01   0.05 |
  |    Zr          8     1632.85    -125.36      0.07  -3.854E+01   0.07 |
  |    Zr          9     1632.85    -125.36      0.07  -3.854E+01   0.07 |
  |    Sn          1     3254.98     -59.20      0.43   1.258E+02   0.12 |
  |    Sn          2     3254.98     -59.20      0.43   1.258E+02   0.12 |
  |    Sn          3     3243.92     -34.29      0.34   1.325E+02   0.12 |
  |    Sn          4     3248.85     -48.66      0.61   1.271E+02   0.04 |
  |    Sn          5     3248.85     -48.66      0.61   1.271E+02   0.04 |
  |    Sn          6     3254.44     -61.82      0.62   1.236E+02   0.17 |
  |    Sn          7     3258.76     -66.32      0.22   1.297E+02   0.24 |
  |    La          1     4712.60     768.00      0.10  -8.512E+01   0.16 |
  |    La          2     4646.88     630.00      0.00  -7.812E+01   0.02 |
  |    La          3     4706.09     745.90      0.05  -8.322E+01   0.08 |
  |    La          4     4702.47     769.19      0.04  -8.327E+01   0.06 |
  |    La          5     4646.88     630.00      0.00  -7.812E+01   0.02 |
  |    La          6     4706.09     745.90      0.05  -8.322E+01   0.08 |
  |    La          7     4702.47     769.19      0.04  -8.327E+01   0.06 |
  |    La          8     4614.41     536.72      0.07  -7.880E+01   0.20 |
  |    La          9     4600.08     528.95      0.09  -7.603E+01   0.10 |
  |    La         10     4655.95     655.49      0.10  -7.980E+01   0.13 |
  |    La         11     4600.08     528.95      0.09  -7.603E+01   0.10 |
  |    La         12     4655.95     655.49      0.10  -7.980E+01   0.13 |
  |    La         13     4797.95     974.37      0.01  -8.877E+01   0.01 |
  |    La         14     4660.78     650.98      0.09  -8.163E+01   0.16 |
  |    La         15     4660.78     650.98      0.09  -8.163E+01   0.16 |
  |    La         16     4708.39     777.44      0.10  -8.422E+01   0.16 |
  ========================================================================
 
 *********************** Forces ***********************
 *                                                    *
 *            Cartesian components (eV/A)             *
 * -------------------------------------------------- *
 *                   x            y            z      *
 *                                                    *
 * O         1      0.01554     -0.01145      0.00761 *
 * O         2     -0.00751     -0.00138      0.01000 *
 * O         3      0.00176     -0.00563     -0.00218 *
 * O         4     -0.01558      0.00184      0.00116 *
 * O         5     -0.00176      0.00563      0.00218 *
 * O         6     -0.01554      0.01145     -0.00761 *
 * O         7      0.01558     -0.00184     -0.00116 *
 * O         8      0.00751      0.00138     -0.01000 *
 * O         9      0.01617      0.00982     -0.00502 *
 * O        10      0.00562      0.00641      0.00815 *
 * O        11      0.01403      0.00467     -0.00836 *
 * O        12     -0.00700      0.01016      0.00245 *
 * O        13      0.00698     -0.00458     -0.00112 *
 * O        14     -0.01326      0.02465     -0.00724 *
 * O        15      0.01528      0.01267      0.02229 *
 * O        16      0.00896      0.01339     -0.00225 *
 * O        17      0.00095      0.00339     -0.00075 *
 * O        18     -0.00194      0.00417      0.00968 *
 * O        19      0.00407      0.02196     -0.00452 *
 * O        20      0.00434      0.00492      0.00270 *
 * O        21      0.00749     -0.00939      0.01450 *
 * O        22     -0.00698      0.00457      0.00112 *
 * O        23     -0.00861     -0.01385     -0.00007 *
 * O        24     -0.01528     -0.01267     -0.02229 *
 * O        25     -0.01403     -0.00467      0.00836 *
 * O        26      0.01510     -0.00401      0.00442 *
 * O        27     -0.01617     -0.00982      0.00502 *
 * O        28      0.00338     -0.01345      0.00423 *
 * O        29     -0.00938     -0.00723     -0.00013 *
 * O        30     -0.00407     -0.02196      0.00452 *
 * O        31     -0.00376     -0.00660      0.00226 *
 * O        32     -0.00095     -0.00339      0.00075 *
 * O        33     -0.00562     -0.00641     -0.00815 *
 * O        34      0.00700     -0.01016     -0.00245 *
 * O        35      0.01326     -0.02465      0.00724 *
 * O        36     -0.00896     -0.01339      0.00225 *
 * O        37      0.00194     -0.00417     -0.00968 *
 * O        38     -0.00434     -0.00492     -0.00270 *
 * O        39     -0.00749      0.00939     -0.01450 *
 * O        40      0.00861      0.01385      0.00006 *
 * O        41     -0.01510      0.00401     -0.00442 *
 * O        42     -0.00338      0.01345     -0.00423 *
 * O        43      0.00938      0.00723      0.00013 *
 * O        44      0.00376      0.00660     -0.00226 *
 * O        45      0.00113      0.00119     -0.00926 *
 * O        46      0.02331     -0.00115      0.00607 *
 * O        47      0.01972      0.00633     -0.00942 *
 * O        48     -0.00696     -0.00456     -0.01262 *
 * O        49     -0.02032      0.00346     -0.00690 *
 * O        50      0.00617     -0.01297      0.01640 *
 * O        51     -0.02331      0.00115     -0.00607 *
 * O        52     -0.00113     -0.00119      0.00926 *
 * O        53     -0.01972     -0.00633      0.00942 *
 * O        54      0.00696      0.00456      0.01262 *
 * O        55      0.02032     -0.00346      0.00690 *
 * O        56     -0.00617      0.01297     -0.01640 *
 * Zr        1     -0.00000     -0.00000     -0.00000 *
 * Zr        2     -0.02756     -0.01245     -0.00288 *
 * Zr        3     -0.00037     -0.00059      0.02650 *
 * Zr        4      0.02756      0.01245      0.00288 *
 * Zr        5      0.00037      0.00059     -0.02650 *
 * Zr        6     -0.00727     -0.00984      0.00203 *
 * Zr        7      0.00727      0.00984     -0.00203 *
 * Zr        8      0.00189     -0.00067      0.01064 *
 * Zr        9     -0.00189      0.00067     -0.01064 *
 * Sn        1     -0.01071      0.00659      0.01546 *
 * Sn        2      0.01071     -0.00660     -0.01546 *
 * Sn        3      0.00000      0.00000      0.00000 *
 * Sn        4      0.02820     -0.01189      0.02087 *
 * Sn        5     -0.02820      0.01189     -0.02087 *
 * Sn        6      0.00000      0.00000      0.00000 *
 * Sn        7      0.00000     -0.00000     -0.00000 *
 * La        1     -0.00000      0.00000      0.00000 *
 * La        2      0.01801      0.01213     -0.01344 *
 * La        3     -0.01357     -0.00133     -0.00337 *
 * La        4      0.00741     -0.01170     -0.00398 *
 * La        5     -0.01801     -0.01213      0.01344 *
 * La        6      0.01357      0.00133      0.00337 *
 * La        7     -0.00741      0.01170      0.00398 *
 * La        8     -0.00000     -0.00000     -0.00000 *
 * La        9      0.02399      0.00136     -0.00480 *
 * La       10     -0.02652      0.00697     -0.00962 *
 * La       11     -0.02399     -0.00136      0.00480 *
 * La       12      0.02652     -0.00697      0.00962 *
 * La       13     -0.00000      0.00000     -0.00000 *
 * La       14     -0.00422      0.00036      0.00975 *
 * La       15      0.00422     -0.00036     -0.00975 *
 * La       16     -0.00000      0.00000      0.00000 *
 *                                                    *
 ******************************************************
 
 ***************** Stress Tensor *****************
 *                                               *
 *          Cartesian components (GPa)           *
 * --------------------------------------------- *
 *             x             y             z     *
 *                                               *
 *  x      0.002429     -0.026553      0.029854  *
 *  y     -0.026553     -0.002794     -0.004783  *
 *  z      0.029854     -0.004783     -0.003379  *
 *                                               *
 *  Pressure:    0.0012                          *
 *                                               *
 *************************************************
 
 Pseudo atomic calculation performed for O 2s2 2p4
 
 Converged in 39 iterations to a total energy of -432.6554 eV
 
 
 Pseudo atomic calculation performed for Zr 4s2 4p6 4d2 5s2
 
 Converged in 38 iterations to a total energy of -1285.4931 eV
 
 
 Pseudo atomic calculation performed for Sn 4d10 5s2 5p2
 
 Converged in 48 iterations to a total energy of -2044.5413 eV
 
 
 Pseudo atomic calculation performed for La 5s2 5p6 5d1 6s2
 
 Converged in 34 iterations to a total energy of -968.0373 eV
 
Charge spilling parameter for spin component 1 = 0.24%
 
     Atomic Populations (Mulliken)
     -----------------------------
Species   Ion     s      p      d      f     Total  Charge (e)
==============================================================
  O        1     1.87   5.00   0.00   0.00   6.87    -0.87
  O        2     1.87   5.00   0.00   0.00   6.87    -0.87
  O        3     1.87   5.00   0.00   0.00   6.87    -0.87
  O        4     1.87   5.00   0.00   0.00   6.87    -0.87
  O        5     1.87   5.00   0.00   0.00   6.87    -0.87
  O        6     1.87   5.00   0.00   0.00   6.87    -0.87
  O        7     1.87   5.00   0.00   0.00   6.87    -0.87
  O        8     1.87   5.00   0.00   0.00   6.87    -0.87
  O        9     1.87   4.99   0.00   0.00   6.85    -0.85
  O       10     1.86   4.94   0.00   0.00   6.80    -0.80
  O       11     1.87   4.99   0.00   0.00   6.86    -0.86
  O       12     1.88   5.02   0.00   0.00   6.91    -0.91
  O       13     1.88   5.02   0.00   0.00   6.91    -0.91
  O       14     1.86   4.94   0.00   0.00   6.80    -0.80
  O       15     1.86   4.94   0.00   0.00   6.80    -0.80
  O       16     1.87   4.99   0.00   0.00   6.86    -0.86
  O       17     1.87   4.99   0.00   0.00   6.86    -0.86
  O       18     1.88   5.03   0.00   0.00   6.91    -0.91
  O       19     1.87   4.99   0.00   0.00   6.85    -0.85
  O       20     1.87   4.98   0.00   0.00   6.85    -0.85
  O       21     1.87   4.99   0.00   0.00   6.86    -0.86
  O       22     1.88   5.02   0.00   0.00   6.91    -0.91
  O       23     1.87   4.99   0.00   0.00   6.85    -0.85
  O       24     1.86   4.94   0.00   0.00   6.80    -0.80
  O       25     1.87   4.99   0.00   0.00   6.86    -0.86
  O       26     1.88   5.02   0.00   0.00   6.91    -0.91
  O       27     1.87   4.99   0.00   0.00   6.85    -0.85
  O       28     1.87   4.99   0.00   0.00   6.86    -0.86
  O       29     1.87   4.99   0.00   0.00   6.86    -0.86
  O       30     1.87   4.99   0.00   0.00   6.85    -0.85
  O       31     1.86   4.94   0.00   0.00   6.80    -0.80
  O       32     1.87   4.99   0.00   0.00   6.86    -0.86
  O       33     1.86   4.94   0.00   0.00   6.80    -0.80
  O       34     1.88   5.02   0.00   0.00   6.91    -0.91
  O       35     1.86   4.94   0.00   0.00   6.80    -0.80
  O       36     1.87   4.99   0.00   0.00   6.86    -0.86
  O       37     1.88   5.02   0.00   0.00   6.91    -0.91
  O       38     1.87   4.99   0.00   0.00   6.85    -0.85
  O       39     1.87   4.99   0.00   0.00   6.86    -0.86
  O       40     1.87   4.99   0.00   0.00   6.85    -0.85
  O       41     1.88   5.02   0.00   0.00   6.91    -0.91
  O       42     1.87   4.99   0.00   0.00   6.86    -0.86
  O       43     1.87   4.99   0.00   0.00   6.86    -0.86
  O       44     1.86   4.94   0.00   0.00   6.80    -0.80
  O       45     1.86   4.94   0.00   0.00   6.80    -0.80
  O       46     1.86   4.95   0.00   0.00   6.80    -0.80
  O       47     1.87   4.99   0.00   0.00   6.86    -0.86
  O       48     1.86   4.94   0.00   0.00   6.80    -0.80
  O       49     1.87   4.99   0.00   0.00   6.86    -0.86
  O       50     1.87   4.99   0.00   0.00   6.85    -0.85
  O       51     1.86   4.95   0.00   0.00   6.80    -0.80
  O       52     1.86   4.94   0.00   0.00   6.80    -0.80
  O       53     1.87   4.99   0.00   0.00   6.86    -0.86
  O       54     1.86   4.94   0.00   0.00   6.80    -0.80
  O       55     1.87   4.99   0.00   0.00   6.86    -0.86
  O       56     1.87   4.99   0.00   0.00   6.85    -0.85
  Zr       1     2.37   6.48   1.93   0.00  10.77     1.23
  Zr       2     2.37   6.50   1.92   0.00  10.78     1.22
  Zr       3     2.37   6.49   1.92   0.00  10.78     1.22
  Zr       4     2.37   6.50   1.92   0.00  10.78     1.22
  Zr       5     2.37   6.49   1.92   0.00  10.78     1.22
  Zr       6     2.37   6.48   1.92   0.00  10.77     1.23
  Zr       7     2.37   6.48   1.92   0.00  10.77     1.23
  Zr       8     2.37   6.47   1.93   0.00  10.77     1.23
  Zr       9     2.37   6.47   1.93   0.00  10.77     1.23
  Sn       1     1.05   1.31  10.00   0.00  12.36     1.64
  Sn       2     1.05   1.31  10.00   0.00  12.36     1.64
  Sn       3     1.05   1.31  10.00   0.00  12.36     1.64
  Sn       4     1.05   1.31  10.00   0.00  12.36     1.64
  Sn       5     1.05   1.31  10.00   0.00  12.36     1.64
  Sn       6     1.05   1.32  10.00   0.00  12.36     1.64
  Sn       7     1.05   1.31  10.00   0.00  12.36     1.64
  La       1     2.05   6.16   1.19   0.00   9.40     1.60
  La       2     2.10   6.17   1.19   0.00   9.46     1.54
  La       3     2.05   6.16   1.19   0.00   9.41     1.59
  La       4     2.04   6.16   1.19   0.00   9.39     1.61
  La       5     2.10   6.17   1.19   0.00   9.46     1.54
  La       6     2.05   6.16   1.19   0.00   9.41     1.59
  La       7     2.04   6.16   1.19   0.00   9.39     1.61
  La       8     2.08   6.19   1.19   0.00   9.46     1.54
  La       9     2.11   6.18   1.19   0.00   9.48     1.52
  La      10     2.06   6.18   1.19   0.00   9.43     1.57
  La      11     2.11   6.18   1.19   0.00   9.48     1.52
  La      12     2.06   6.18   1.19   0.00   9.43     1.57
  La      13     1.99   6.13   1.20   0.00   9.32     1.68
  La      14     2.07   6.17   1.19   0.00   9.44     1.56
  La      15     2.07   6.17   1.19   0.00   9.44     1.56
  La      16     2.03   6.16   1.19   0.00   9.39     1.61
==============================================================
 
            Bond              Population      Length (A)
============================================================
         O 36 -- Sn 7              0.35        2.10072
         O 16 -- Sn 7              0.35        2.10072
         O 27 -- Sn 3              0.34        2.10155
         O 9  -- Sn 3              0.34        2.10155
         O 28 -- Sn 4              0.35        2.10181
         O 42 -- Sn 5              0.35        2.10181
         O 29 -- Sn 6              0.35        2.10322
         O 43 -- Sn 6              0.35        2.10322
         O 49 -- Sn 1              0.35        2.10331
         O 55 -- Sn 2              0.35        2.10331
         O 17 -- Sn 7              0.35        2.10455
         O 32 -- Sn 7              0.35        2.10455
         O 23 -- Sn 3              0.34        2.10466
         O 40 -- Sn 3              0.34        2.10466
         O 53 -- Sn 2              0.34        2.10554
         O 47 -- Sn 1              0.34        2.10554
         O 21 -- Sn 2              0.35        2.10635
         O 39 -- Sn 1              0.35        2.10635
         O 56 -- Sn 4              0.34        2.10658
         O 50 -- Sn 5              0.34        2.10658
         O 30 -- Sn 5              0.34        2.10798
         O 19 -- Sn 4              0.34        2.10798
         O 37 -- Sn 1              0.34        2.10880
         O 18 -- Sn 2              0.34        2.10880
         O 38 -- Sn 3              0.34        2.10932
         O 20 -- Sn 3              0.34        2.10932
         O 18 -- Sn 5              0.34        2.10951
         O 37 -- Sn 4              0.34        2.10951
         O 22 -- Sn 4              0.34        2.11033
         O 13 -- Sn 5              0.34        2.11033
         O 11 -- Sn 4              0.35        2.11038
         O 25 -- Sn 5              0.35        2.11038
         O 45 -- Zr 1              0.42        2.11230
         O 52 -- Zr 1              0.42        2.11230
         O 22 -- Sn 6              0.33        2.11233
         O 13 -- Sn 6              0.33        2.11233
         O 34 -- Sn 6              0.33        2.11297
         O 12 -- Sn 6              0.33        2.11297
         O 33 -- Zr 3              0.41        2.11308
         O 10 -- Zr 5              0.41        2.11308
         O 33 -- Zr 7              0.42        2.11328
         O 10 -- Zr 6              0.42        2.11328
         O 45 -- Zr 9              0.43        2.11374
         O 52 -- Zr 8              0.43        2.11374
         O 31 -- Zr 5              0.43        2.11475
         O 44 -- Zr 3              0.43        2.11475
         O 15 -- Zr 7              0.43        2.11482
         O 24 -- Zr 6              0.43        2.11482
         O 12 -- Sn 2              0.33        2.11496
         O 34 -- Sn 1              0.33        2.11496
         O 48 -- Zr 7              0.43        2.11561
         O 54 -- Zr 6              0.43        2.11561
         O 26 -- Sn 2              0.33        2.11572
         O 41 -- Sn 1              0.33        2.11572
         O 35 -- Zr 2              0.43        2.11592
         O 14 -- Zr 4              0.43        2.11592
         O 28 -- Zr 4              0.44        2.11752
         O 42 -- Zr 2              0.44        2.11752
         O 48 -- Zr 1              0.42        2.11784
         O 54 -- Zr 1              0.42        2.11784
         O 15 -- Zr 9              0.42        2.11832
         O 24 -- Zr 8              0.42        2.11832
         O 9  -- Zr 8              0.45        2.11861
         O 27 -- Zr 9              0.45        2.11861
         O 26 -- Sn 7              0.33        2.11873
         O 41 -- Sn 7              0.33        2.11873
         O 51 -- Zr 2              0.43        2.11898
         O 46 -- Zr 4              0.43        2.11898
         O 14 -- Zr 8              0.42        2.11915
         O 35 -- Zr 9              0.42        2.11915
         O 31 -- Zr 9              0.43        2.11925
         O 44 -- Zr 8              0.43        2.11925
         O 17 -- Zr 6              0.45        2.12023
         O 32 -- Zr 7              0.45        2.12023
         O 49 -- Zr 4              0.44        2.12103
         O 55 -- Zr 2              0.44        2.12103
         O 51 -- Zr 5              0.42        2.12153
         O 46 -- Zr 3              0.42        2.12153
         O 40 -- Zr 3              0.45        2.12188
         O 23 -- Zr 5              0.45        2.12188
         O 36 -- Zr 3              0.45        2.12227
         O 16 -- Zr 5              0.45        2.12227
         O 29 -- Zr 4              0.45        2.12242
         O 43 -- Zr 2              0.45        2.12242
         O 53 -- Zr 3              0.44        2.12375
         O 47 -- Zr 5              0.44        2.12375
         O 38 -- Zr 2              0.45        2.12377
         O 20 -- Zr 4              0.45        2.12377
         O 30 -- Zr 8              0.45        2.12433
         O 19 -- Zr 9              0.45        2.12433
         O 39 -- Zr 6              0.44        2.12568
         O 21 -- Zr 7              0.44        2.12568
         O 56 -- Zr 1              0.45        2.12802
         O 50 -- Zr 1              0.45        2.12802
         O 25 -- Zr 6              0.45        2.12941
         O 11 -- Zr 7              0.45        2.12941
         O 2  -- La 13             0.19        2.35675
         O 8  -- La 13             0.19        2.35675
         O 2  -- La 7              0.18        2.35893
         O 8  -- La 4              0.18        2.35893
         O 6  -- La 1              0.19        2.35945
         O 1  -- La 1              0.19        2.35945
         O 4  -- La 16             0.19        2.35948
         O 7  -- La 16             0.19        2.35948
         O 4  -- La 4              0.17        2.35986
         O 7  -- La 7              0.17        2.35986
         O 4  -- La 6              0.18        2.35996
         O 7  -- La 3              0.18        2.35996
         O 5  -- La 15             0.18        2.36028
         O 3  -- La 14             0.18        2.36028
         O 3  -- La 3              0.18        2.36032
         O 5  -- La 6              0.18        2.36032
         O 6  -- La 14             0.18        2.36061
         O 1  -- La 15             0.18        2.36061
         O 8  -- La 10             0.19        2.36068
         O 2  -- La 12             0.19        2.36068
         O 2  -- La 2              0.17        2.36095
         O 8  -- La 5              0.17        2.36095
         O 7  -- La 11             0.16        2.36226
         O 4  -- La 9              0.16        2.36226
         O 3  -- La 8              0.18        2.36243
         O 5  -- La 8              0.18        2.36243
         O 3  -- La 5              0.15        2.36249
         O 5  -- La 2              0.15        2.36249
         O 1  -- La 10             0.16        2.36276
         O 6  -- La 12             0.16        2.36276
         O 6  -- La 9              0.16        2.36313
         O 1  -- La 11             0.16        2.36313
         O 31 -- La 5              0.12        2.66642
         O 44 -- La 2              0.12        2.66642
         O 18 -- La 5              0.23        2.66757
         O 37 -- La 2              0.23        2.66757
         O 24 -- La 10             0.13        2.66808
         O 15 -- La 12             0.13        2.66808
         O 55 -- La 10             0.17        2.66828
         O 49 -- La 12             0.17        2.66828
         O 52 -- La 2              0.12        2.66900
         O 45 -- La 5              0.12        2.66900
         O 47 -- La 11             0.18        2.66931
         O 53 -- La 9              0.18        2.66931
         O 42 -- La 4              0.17        2.66947
         O 28 -- La 7              0.17        2.66947
         O 22 -- La 9              0.24        2.67028
         O 13 -- La 11             0.24        2.67028
         O 34 -- La 11             0.24        2.67083
         O 12 -- La 9              0.24        2.67083
         O 10 -- La 7              0.12        2.67117
         O 33 -- La 4              0.12        2.67117
         O 19 -- La 9              0.18        2.67174
         O 30 -- La 11             0.18        2.67174
         O 16 -- La 5              0.17        2.67193
         O 36 -- La 2              0.17        2.67193
         O 26 -- La 5              0.24        2.67208
         O 41 -- La 2              0.24        2.67208
         O 40 -- La 9              0.18        2.67263
         O 23 -- La 11             0.18        2.67263
         O 46 -- La 15             0.13        2.67302
         O 51 -- La 14             0.13        2.67302
         O 48 -- La 6              0.13        2.67340
         O 54 -- La 3              0.13        2.67340
         O 50 -- La 5              0.18        2.67346
         O 56 -- La 2              0.18        2.67346
         O 35 -- La 16             0.13        2.67375
         O 14 -- La 16             0.13        2.67375
         O 10 -- La 13             0.12        2.67450
         O 33 -- La 13             0.12        2.67450
         O 54 -- La 7              0.12        2.67470
         O 48 -- La 4              0.12        2.67470
         O 27 -- La 9              0.18        2.67496
         O 9  -- La 11             0.18        2.67496
         O 14 -- La 6              0.13        2.67509
         O 35 -- La 3              0.13        2.67509
         O 43 -- La 3              0.18        2.67583
         O 29 -- La 6              0.18        2.67583
         O 20 -- La 12             0.18        2.67643
         O 38 -- La 10             0.18        2.67643
         O 32 -- La 12             0.17        2.67661
         O 17 -- La 10             0.17        2.67661
         O 51 -- La 1              0.14        2.67682
         O 46 -- La 1              0.14        2.67682
         O 21 -- La 8              0.18        2.67711
         O 39 -- La 8              0.18        2.67711
         O 28 -- La 16             0.17        2.67722
         O 42 -- La 16             0.17        2.67722
         O 39 -- La 3              0.18        2.67736
         O 21 -- La 6              0.18        2.67736
         O 43 -- La 14             0.18        2.67750
         O 29 -- La 15             0.18        2.67750
         O 20 -- La 7              0.18        2.67761
         O 38 -- La 4              0.18        2.67761
         O 24 -- La 13             0.12        2.67787
         O 15 -- La 13             0.12        2.67787
         O 32 -- La 14             0.18        2.67817
         O 17 -- La 15             0.18        2.67817
         O 44 -- La 13             0.13        2.67866
         O 31 -- La 13             0.13        2.67866
         O 11 -- La 14             0.19        2.67885
         O 25 -- La 15             0.19        2.67885
         O 45 -- La 3              0.14        2.67946
         O 52 -- La 6              0.14        2.67946
         O 41 -- La 12             0.24        2.67951
         O 26 -- La 10             0.24        2.67951
         O 18 -- La 8              0.23        2.67953
         O 37 -- La 8              0.23        2.67953
         O 25 -- La 8              0.18        2.67995
         O 11 -- La 8              0.18        2.67995
         O 34 -- La 3              0.25        2.68071
         O 12 -- La 6              0.25        2.68071
         O 22 -- La 14             0.24        2.68164
         O 13 -- La 15             0.24        2.68164
         O 16 -- La 14             0.19        2.68206
         O 36 -- La 15             0.19        2.68206
         O 49 -- La 1              0.18        2.68209
         O 55 -- La 1              0.18        2.68209
         O 50 -- La 4              0.18        2.68326
         O 56 -- La 7              0.18        2.68326
         O 23 -- La 7              0.18        2.68432
         O 40 -- La 4              0.18        2.68432
         O 27 -- La 12             0.18        2.68470
         O 9  -- La 10             0.18        2.68470
         O 53 -- La 1              0.19        2.68801
         O 47 -- La 1              0.19        2.68801
         O 19 -- La 16             0.18        2.68847
         O 30 -- La 16             0.18        2.68847
         O 34 -- O 47             -0.06        2.79483
         O 12 -- O 53             -0.06        2.79483
         O 42 -- O 50             -0.06        2.79484
         O 28 -- O 56             -0.06        2.79484
         O 18 -- O 50             -0.06        2.79651
         O 37 -- O 56             -0.06        2.79651
         O 27 -- O 40             -0.06        2.79679
         O 9  -- O 23             -0.06        2.79679
         O 36 -- O 41             -0.06        2.79702
         O 16 -- O 26             -0.06        2.79702
         O 12 -- O 22             -0.05        2.79720
         O 13 -- O 34             -0.05        2.79720
         O 19 -- O 22             -0.06        2.79737
         O 13 -- O 30             -0.06        2.79737
         O 41 -- O 49             -0.06        2.79796
         O 26 -- O 55             -0.06        2.79796
         O 18 -- O 26             -0.05        2.79798
         O 37 -- O 41             -0.05        2.79798
         O 34 -- O 43             -0.06        2.79854
         O 12 -- O 29             -0.06        2.79854
         O 16 -- O 32             -0.06        2.79946
         O 17 -- O 36             -0.06        2.79946
         O 13 -- O 29             -0.06        2.80020
         O 22 -- O 43             -0.06        2.80020
         O 18 -- O 21             -0.06        2.80264
         O 37 -- O 39             -0.06        2.80264
         O 19 -- O 28             -0.06        2.80389
         O 30 -- O 42             -0.06        2.80389
         O 20 -- O 23             -0.06        2.80481
         O 38 -- O 40             -0.06        2.80481
         O 20 -- O 27             -0.06        2.80482
         O 9  -- O 38             -0.06        2.80482
         O 47 -- O 49             -0.06        2.80552
         O 53 -- O 55             -0.06        2.80552
         O 32 -- O 41             -0.06        2.80691
         O 17 -- O 26             -0.06        2.80691
         O 12 -- O 21             -0.06        2.80709
         O 34 -- O 39             -0.06        2.80709
         O 11 -- O 22             -0.06        2.80884
         O 13 -- O 25             -0.06        2.80884
         O 44 -- O 52             -0.04        2.80929
         O 31 -- O 45             -0.04        2.80929
         O 18 -- O 25             -0.05        2.80976
         O 11 -- O 37             -0.05        2.80976
         O 10 -- O 54             -0.03        2.80999
         O 33 -- O 48             -0.03        2.80999
         O 33 -- O 44             -0.03        2.81411
         O 10 -- O 31             -0.03        2.81411
         O 10 -- O 24             -0.03        2.81663
         O 15 -- O 33             -0.03        2.81663
         O 36 -- O 44             -0.03        2.81764
         O 16 -- O 31             -0.03        2.81764
         O 48 -- O 52             -0.03        2.81785
         O 45 -- O 54             -0.03        2.81785
         O 14 -- O 28             -0.03        2.81901
         O 35 -- O 42             -0.03        2.81901
         O 15 -- O 32             -0.03        2.81911
         O 17 -- O 24             -0.03        2.81911
         O 52 -- O 56             -0.03        2.82028
         O 45 -- O 50             -0.03        2.82028
         O 24 -- O 44             -0.03        2.82036
         O 15 -- O 31             -0.03        2.82036
         O 35 -- O 45             -0.03        2.82044
         O 14 -- O 52             -0.03        2.82044
         O 10 -- O 23             -0.03        2.82075
         O 33 -- O 40             -0.03        2.82075
         O 15 -- O 27             -0.03        2.82217
         O 9  -- O 24             -0.03        2.82217
         O 38 -- O 42             -0.03        2.82222
         O 20 -- O 28             -0.03        2.82222
         O 20 -- O 49             -0.03        2.82441
         O 38 -- O 55             -0.03        2.82441
         O 43 -- O 51             -0.03        2.82580
         O 29 -- O 46             -0.03        2.82580
         O 35 -- O 43             -0.03        2.82611
         O 14 -- O 29             -0.03        2.82611
         O 40 -- O 53             -0.03        2.82622
         O 23 -- O 47             -0.03        2.82622
         O 39 -- O 54             -0.03        2.82758
         O 21 -- O 48             -0.03        2.82758
         O 19 -- O 27             -0.03        2.82815
         O 9  -- O 30             -0.03        2.82815
         O 46 -- O 49             -0.03        2.82866
         O 51 -- O 55             -0.03        2.82866
         O 16 -- O 51             -0.03        2.82924
         O 36 -- O 46             -0.03        2.82924
         O 54 -- O 56             -0.03        2.82990
         O 48 -- O 50             -0.03        2.82990
         O 19 -- O 35             -0.03        2.83228
         O 14 -- O 30             -0.03        2.83228
         O 47 -- O 51             -0.03        2.83275
         O 46 -- O 53             -0.03        2.83275
         O 11 -- O 32             -0.03        2.83805
         O 17 -- O 25             -0.03        2.83805
         O 25 -- O 39             -0.03        2.83935
         O 11 -- O 21             -0.03        2.83935
============================================================
 
Initialisation time =     25.21 s
Calculation time    =   2671.20 s
Finalisation time   =      0.12 s
Total time          =   2696.52 s
Peak Memory Use     = 3837512 kB
  
Overall parallel efficiency rating: Good (75%)                                  
  
Data was distributed by:-
G-vector (64-way); efficiency rating: Good (75%)                                
k-point (14-way); efficiency rating: Excellent (98%)                            
