 +-------------------------------------------------+
 |                                                 |
 |      CCC   AA    SSS  TTTTT  EEEEE  PPPP        |
 |     C     A  A  S       T    E      P   P       |
 |     C     AAAA   SS     T    EEE    PPPP        |
 |     C     A  A     S    T    E      P           |
 |      CCC  A  A  SSS     T    EEEEE  P           |
 |                                                 |
 +-------------------------------------------------+
 |                                                 |
 | Welcome to Academic Release CASTEP version 16.1 |          
 | Ab Initio Total Energy Program                  |
 |                                                 |
 | Authors:                                        |
 | M. Segall, M. Probert, C. Pickard, P. Hasnip,   |
 | S. Clark, K. Refson, J. R. Yates, M. Payne      |
 |                                                 |
 | Contributors:                                   |
 | P. Lindan, P. Haynes, J. White, V. Milman,      |
 | N. Govind, M. Gibson, P. Tulip, V. Cocula,      |
 | B. Montanari, D. Quigley, M. Glover,            |
 | L. Bernasconi, A. Perlov, M. Plummer,           |
 | E. McNellis, J. Meyer, J. Gale, D. Jochym       |
 | J. Aarons, B. Walker, R. Gillen, D. Jones       |
 | T. Green, I. J. Bush, C. J. Armstrong,          |
 | E. J. Higgins, E. L. Brown, M. S. McFly         |
 |                                                 |
 | Copyright (c) 2000 - 2015                       |
 |                                                 |
 |     Distributed under the terms of an           |
 |     Agreement between the United Kingdom        |
 |     Car-Parrinello (UKCP) Consortium,           |
 |     Daresbury Laboratory and Accelrys, Inc.     |
 |                                                 |
 | Please cite                                     |
 |                                                 |
 |     "First principles methods using CASTEP"     |
 |                                                 |
 |         Zeitschrift fuer Kristallographie       |
 |           220(5-6) pp. 567-570 (2005)           |
 |                                                 |
 | S. J. Clark, M. D. Segall, C. J. Pickard,       |
 | P. J. Hasnip, M. J. Probert, K. Refson,         |
 | M. C. Payne                                     |
 |                                                 |
 |       in all publications arising from          |
 |              your use of CASTEP                 |
 |                                                 |
 +-------------------------------------------------+
 
 
 Compiled for linux_x86_64_cray-XT on Tue, 22 Mar 2022 15:42:52 +0000
 from code version b833c1ffcd7d+  Fri, 13 Jun 2014 17:24:31 +0100
 Compiler: Cray Fortran 11.0.4; Optimisation: intermediate
 MATHLIBS: LibSci (LAPACK version 3.6.1)
 FFT Lib : default
 Fundamental constants values: CODATA 2010
 
 Run started: Fri, 25 Mar 2022 21:47:12 +0000
 +-------------------------------------------------+
 |                                                 |
 |           N   N    M   M    RRRR                |
 |           NN  N    MM MM    R   R               |
 |           N N N    M M M    RRRR                |
 |           N  NN    M   M    R  R                |
 |           N   N    M   M    R   R               |
 |                                                 |
 +-------------------------------------------------+
 |                                                 |
 | Welcome to Materials Studio CASTEP-NMR          |
 |                                                 |
 | Authors:                                        |
 | J.R. Yates, C.J. Pickard, F. Mauri              |
 |                                                 |
 | Contributors:                                   |
 | T.F.G. Green, S.A. Joyce                        |
 |                                                 |
 | Copyright (c) 2004 - 2015                       |
 |                                                 |
 | Please cite the appropriate publications in all |
 | work arising from your use of CASTEP NMR.       |
 |                                                 |
 | For NMR Shielding Tensors cite:                 |
 |    "All-electron magnetic response with         |
 |    pseudopotentials: NMR chemical shifts",      |
 |    C. J. Pickard, F. Mauri;                     |
 |    Physical Review B63 245101 (2001), and       |
 |                                                 |
 |    "Calculation of NMR Chemical Shifts          |
 |    for extended systems using                   |
 |    Ultrasoft Pseudopotentials",                 |
 |    J. R. Yates, C. J. Pickard and F. Mauri      |
 |    Physical Review B76 024401 (2007)            |
 |                                                 |
 | For Electric Field Gradients cite:              |
 |   "Accurate First Principles Prediction of 17O  |
 |    NMR Parameters in SiO2: Assignment of the    |
 |    Zeolite Ferrierite Spectrum"                 |
 |    M. Profeta, F. Mauri and C. J. Pickard       |
 |    J. Amer. Chem. Soc. 125 541 (2003)           |
 |                                                 |
 | For Spin-Spin (J) Couplings cite:               |
 |   "A first principles theory of NMR J-coupling  |
 |   in solid-state systems"                       |
 |   S.A. Joyce, J.R. Yates, C.J. Pickard, F. Mauri|
 |   J. Chem. Phys. 127 204107 (2007)              |
 |                                                 |
 |   "Relativistic NMR J-coupling with ultrasoft   |
 |   pseudopotentials and the zeroth-order regular |
 |   approximation"                                |
 |   T.F.G. Green and J.R. Yates                   |
 |   J. Chem. Phys. 140 234106 (2014)              |
 |                                                 |
 +-------------------------------------------------+
 
 
 Atomic calculation performed for O: 1s2 2s2 2p4
 
 Converged in 44 iterations to an ae energy of -2040.855 eV
 
 
 Atomic calculation performed for O: 1s2 2s2 2p4
 
 Exceeded max iterations: converged to 0.000000062 eV
 
   ============================================================                
   | Pseudopotential Report - Date of generation 25-03-2022   |                
   ------------------------------------------------------------                
   | Element: O Ionic charge:  6.00 Level of theory: PBE      |                
   | Atomic Solver: ZORA (scalar)                             |                
   |                                                          |                
   |               Reference Electronic Structure             |                
   |         Orbital         Occupation         Energy        |                
   |            2s              2.000           -0.881        |                
   |            2p              4.000           -0.332        |                
   |                                                          |                
   |                 Pseudopotential Definition               |                
   |        Beta     l      e      Rc     scheme   norm       |                
   |          1      0   -0.881   1.100     qc      0         |                
   |          2      0    0.250   1.100     qc      0         |                
   |          3      1   -0.332   1.100     qc      0         |                
   |          4      1    0.250   1.100     qc      0         |                
   |         loc     2    0.000   1.100     pn      0         |                
   |                                                          |                
   | Augmentation charge Rinner = 0.769                       |                
   | Partial core correction Rc = 0.769                       |                
   ------------------------------------------------------------                
   | "2|1.1|15|18|20|20:21(qc=7)"                             |                
   ------------------------------------------------------------                
   |      Author: Chris J. Pickard, Cambridge University      |                
   ============================================================                
 
 Atomic calculation performed for Zr: 1s2 2s2 2p6 3s2 3p6 3d10 4s2 4p6 4d2 5s2
 
 Converged in 52 iterations to an ae energy of -97719.888 eV
 
 
 Atomic calculation performed for Zr: 1s2 2s2 2p6 3s2 3p6 3d10 4s2 4p6 4d2 5s2
 
 Exceeded max iterations: converged to 0.000000936 eV
 
 Warning: ion_atom_descreen_psp: negative charge density encountered
   ============================================================                
   | Pseudopotential Report - Date of generation 25-03-2022   |                
   ------------------------------------------------------------                
   | Element: Zr Ionic charge: 12.00 Level of theory: PBE     |                
   | Atomic Solver: ZORA (scalar)                             |                
   |                                                          |                
   |               Reference Electronic Structure             |                
   |         Orbital         Occupation         Energy        |                
   |            4s              2.000           -2.003        |                
   |            4p              6.000           -1.193        |                
   |            5s              2.000           -0.163        |                
   |            4d              2.000           -0.132        |                
   |                                                          |                
   |                 Pseudopotential Definition               |                
   |        Beta     l      e      Rc     scheme   norm       |                
   |          1      0   -2.003   2.105     qc      0         |                
   |          2      0   -0.163   2.105     qc      0         |                
   |          3      0    0.250   2.105     qc      0         |                
   |          4      1   -1.193   2.105     qc      0         |                
   |          5      1    0.250   2.105     qc      0         |                
   |          6      2   -0.132   2.105     qc      0         |                
   |          7      2    0.250   2.105     qc      0         |                
   |         loc     3    0.000   2.105     pn      0         |                
   |                                                          |                
   | Augmentation charge Rinner = 1.471                       |                
   | Partial core correction Rc = 1.471                       |                
   ------------------------------------------------------------                
   | "3|2.1|7|8|9|40U:50:41:42"                               |                
   ------------------------------------------------------------                
   |      Author: Chris J. Pickard, Cambridge University      |                
   ============================================================                
 
 Atomic calculation performed for Sn:
 1s2 2s2 2p6 3s2 3p6 3d10 4s2 4p6 4d10 5s2 5p2
 
 Converged in 58 iterations to an ae energy of -167539.320 eV
 
 
 Atomic calculation performed for Sn:
 1s2 2s2 2p6 3s2 3p6 3d10 4s2 4p6 4d10 5s2 5p2
 
 Exceeded max iterations: converged to -0.000000491 eV
 
   ============================================================                
   | Pseudopotential Report - Date of generation 25-03-2022   |                
   ------------------------------------------------------------                
   | Element: Sn Ionic charge: 14.00 Level of theory: PBE     |                
   | Atomic Solver: ZORA (scalar)                             |                
   |                                                          |                
   |               Reference Electronic Structure             |                
   |         Orbital         Occupation         Energy        |                
   |            4d             10.000           -0.950        |                
   |            5s              2.000           -0.388        |                
   |            5p              2.000           -0.136        |                
   |                                                          |                
   |                 Pseudopotential Definition               |                
   |        Beta     l      e      Rc     scheme   norm       |                
   |          1      0   -0.388   2.199     qc      0         |                
   |          2      0    0.250   2.199     qc      0         |                
   |          3      1   -0.136   2.199     qc      0         |                
   |          4      1    0.250   2.199     qc      0         |                
   |          5      2   -0.950   2.199     qc      0         |                
   |          6      2    0.250   2.199     qc      0         |                
   |         loc     3    0.000   2.199     pn      0         |                
   |                                                          |                
   | Augmentation charge Rinner = 1.537                       |                
   | Partial core correction Rc = 1.537                       |                
   ------------------------------------------------------------                
   | "3|2.2|7|8|9|50:51:42"                                   |                
   ------------------------------------------------------------                
   |      Author: Chris J. Pickard, Cambridge University      |                
   ============================================================                
 
 Atomic calculation performed for La:
 1s2 2s2 2p6 3s2 3p6 3d10 4s2 4p6 4d10 5s2 5p6 5d1 6s2
 
 Converged in 55 iterations to an ae energy of -230121.495 eV
 
 
 Atomic calculation performed for La:
 1s2 2s2 2p6 3s2 3p6 3d10 4s2 4p6 4d10 5s2 5p6 5d1 6s2
 
 Exceeded max iterations: converged to 0.000001134 eV
 
 Warning: ion_atom_descreen_psp: negative charge density encountered
   ============================================================                
   | Pseudopotential Report - Date of generation 25-03-2022   |                
   ------------------------------------------------------------                
   | Element: La Ionic charge: 11.00 Level of theory: PBE     |                
   | Atomic Solver: ZORA (scalar)                             |                
   |                                                          |                
   |               Reference Electronic Structure             |                
   |         Orbital         Occupation         Energy        |                
   |            5s              2.000           -1.430        |                
   |            5p              6.000           -0.823        |                
   |            6s              2.000           -0.135        |                
   |            5d              1.000           -0.114        |                
   |                                                          |                
   |                 Pseudopotential Definition               |                
   |        Beta     l      e      Rc     scheme   norm       |                
   |          1      0   -1.430   2.298     qc      0         |                
   |          2      0   -0.135   2.298     qc      0         |                
   |          3      0    0.250   2.298     qc      0         |                
   |          4      1   -0.823   2.298     qc      0         |                
   |          5      1    0.250   2.298     qc      0         |                
   |          6      2   -0.114   2.298     qc      0         |                
   |          7      2    0.250   2.298     qc      0         |                
   |         loc     2    0.000   2.298     pn      0         |                
   |                                                          |                
   | Augmentation charge Rinner = 1.606                       |                
   | Partial core correction Rc = 1.606                       |                
   ------------------------------------------------------------                
   | "2|2.3|5|6|7|50U:60:51:52(qc=4.5)"                       |                
   ------------------------------------------------------------                
   |      Author: Chris J. Pickard, Cambridge University      |                
   ============================================================                
 
 Pseudo atomic calculation performed for O 2s2 2p4
 
 Converged in 39 iterations to a total energy of -432.6554 eV
 
 
 Pseudo atomic calculation performed for Zr 4s2 4p6 4d2 5s2
 
 Converged in 38 iterations to a total energy of -1285.4931 eV
 
 
 Pseudo atomic calculation performed for Sn 4d10 5s2 5p2
 
 Converged in 48 iterations to a total energy of -2044.5413 eV
 
 
 Pseudo atomic calculation performed for La 5s2 5p6 5d1 6s2
 
 Converged in 34 iterations to a total energy of -968.0373 eV
 
 Calculation parallelised over 896 processes.
 Data is distributed by G-vector(64-way) and k-point(14-way)

 ************************************ Title ************************************
 nmr testing

 ***************************** General Parameters ******************************
  
 output verbosity                               : normal  (1)
 write checkpoint data to                       : 64.check
 type of calculation                            : Magnetic Resonance
 stress calculation                             : on
 density difference calculation                 : off
 electron localisation func (ELF) calculation   : off
 Hirshfeld analysis                             : off
 unlimited duration calculation
 timing information                             : on
 memory usage estimate                          : on
 write final potential to formatted file        : off
 write final density to formatted file          : off
 write BibTeX reference list                    : off
 write OTFG pseudopotential files               : on
 checkpoint writing                             : off
  
 output         length unit                     : A
 output           mass unit                     : amu
 output           time unit                     : ps
 output         charge unit                     : e
 output           spin unit                     : hbar/2
 output         energy unit                     : eV
 output          force unit                     : eV/A
 output       velocity unit                     : A/ps
 output       pressure unit                     : GPa
 output     inv_length unit                     : 1/A
 output      frequency unit                     : cm-1
 output force constant unit                     : eV/A**2
 output         volume unit                     : A**3
 output   IR intensity unit                     : (D/A)**2/amu
 output         dipole unit                     : D
 output         efield unit                     : eV/A/e
 output        entropy unit                     : J/mol/K
  
 wavefunctions paging                           : none
 random number generator seed                   : randomised (214712919)
 data distribution                              : optimal for this architecture
 optimization strategy                          : maximize speed(+++)

 *********************** Exchange-Correlation Parameters ***********************
  
 using functional                               : Perdew Burke Ernzerhof
 relativistic treatment                         : ZORA
 DFT+D: Semi-empirical dispersion correction    : off

 ************************* Pseudopotential Parameters **************************
  
 pseudopotential representation                 : reciprocal space
 <beta|phi> representation                      : reciprocal space
 spin-orbit coupling                            : off

 **************************** Basis Set Parameters *****************************
  
 plane wave basis set cut-off                   :   816.3416   eV
 size of standard grid                          :     1.7500
 size of   fine   gmax                          :    25.6161   1/A
 finite basis set correction                    : automatic
 number of sample energies                      :          3
           sample  spacing                      :     5.0000   eV

 **************************** Electronic Parameters ****************************
  
 number of  electrons                           :  718.0    
 net charge of system                           :  0.000    
 treating system as non-spin-polarized
 number of bands                                :        431

 ********************* Electronic Minimization Parameters **********************
  
 Method: Treating system as metallic with density mixing treatment of electrons,
         and number of  SD  steps               :          1
         and number of  CG  steps               :          4
  
 total energy / atom convergence tol.           : 0.1000E-08   eV
 eigen-energy convergence tolerance             : 0.2451E-09   eV
 max force / atom convergence tol.              : ignored
 convergence tolerance window                   :          3   cycles
 max. number of SCF cycles                      :         50
 number of fixed-spin iterations                :         10
 smearing scheme                                : Gaussian
 smearing width                                 : 0.2000       eV
 Fermi energy convergence tolerance             : 0.2721E-13   eV
 periodic dipole correction                     : NONE

 ************************** Density Mixing Parameters **************************
  
 density-mixing scheme                          : Broyden
 max. length of mixing history                  :         20
 charge density mixing amplitude                : 0.8000    
 cut-off energy for mixing                      :  816.3       eV

 *********************** Population Analysis Parameters ************************
  
 Population analysis with cutoff                :  3.000       A

 ************************ Magnetic Resonance Parameters ************************
  
 Magnetic Resonance Property                    : Chemical Shielding + EFG
 Position Operator Method                       : crystal
 max. number of MagRes CG steps                 :        250
 convergence tolerance window                   :          2   cycles
 energy convergence tolerance                   : 0.1000E-11   eV
 band convergence tolerance                     : 0.1000E-08   eV

 *******************************************************************************
  
 
                           -------------------------------
                                      Unit Cell
                           -------------------------------
        Real Lattice(A)                      Reciprocal Lattice(1/A)
  10.8996218   0.0051272   0.0015048        0.5764592  -0.0002709  -0.0000796
   0.0051229  10.8998580  -0.0022335       -0.0002712   0.5764467   0.0001170
   0.0015056  -0.0022133  10.9088407       -0.0000796   0.0001181   0.5759719
 
                       Lattice parameters(A)       Cell Angles
                    a =   10.899623          alpha =   90.023362
                    b =   10.899859          beta  =   89.984187
                    c =   10.908841          gamma =   89.946121
 
                       Current cell volume = 1296.017155       A**3
 
                           -------------------------------
                                     Cell Contents
                           -------------------------------
                         Total number of ions in cell =   88
                      Total number of species in cell =    4
                        Max number of any one species =   56
 
            xxxxxxxxxxxxxxxxxxxxxxxxxxxxxxxxxxxxxxxxxxxxxxxxxxxxxxxxxxxx
            x  Element    Atom        Fractional coordinates of atoms  x
            x            Number           u          v          w      x
            x----------------------------------------------------------x
            x  O            1         0.124841   0.124824   0.124845   x 
            x  O            2         0.625116   0.125062   0.625032   x 
            x  O            3         0.124843   0.624979   0.625035   x 
            x  O            4         0.625219   0.625088   0.124963   x 
            x  O            5         0.874815   0.375234   0.374962   x 
            x  O            6         0.874904   0.874870   0.875330   x 
            x  O            7         0.375150   0.375111   0.875126   x 
            x  O            8         0.375163   0.874884   0.374852   x 
            x  O            9         0.420621   0.126131   0.125779   x 
            x  O           10         0.330672   0.124618   0.624502   x 
            x  O           11         0.829587   0.624933   0.624986   x 
            x  O           12         0.919941   0.625097   0.124918   x 
            x  O           13         0.126139   0.420700   0.125783   x 
            x  O           14         0.623922   0.329687   0.125759   x 
            x  O           15         0.624225   0.829257   0.625826   x 
            x  O           16         0.125367   0.919379   0.625057   x 
            x  O           17         0.125393   0.125399   0.419329   x 
            x  O           18         0.125788   0.624062   0.329260   x 
            x  O           19         0.624405   0.625827   0.829675   x 
            x  O           20         0.625213   0.124599   0.920483   x 
            x  O           21         0.875164   0.670206   0.374936   x 
            x  O           22         0.874475   0.579868   0.875331   x 
            x  O           23         0.373799   0.079568   0.874316   x 
            x  O           24         0.374615   0.169674   0.375533   x 
            x  O           25         0.169525   0.374668   0.375555   x 
            x  O           26         0.079267   0.875798   0.376210   x 
            x  O           27         0.579861   0.874227   0.874672   x 
            x  O           28         0.670415   0.375586   0.875580   x 
            x  O           29         0.874785   0.375196   0.079696   x 
            x  O           30         0.375175   0.375185   0.169756   x 
            x  O           31         0.374547   0.875461   0.670015   x 
            x  O           32         0.875754   0.876159   0.579538   x 
            x  O           33         0.670414   0.875268   0.375247   x 
            x  O           34         0.079259   0.373746   0.874187   x 
            x  O           35         0.375859   0.670444   0.874893   x 
            x  O           36         0.875741   0.079405   0.376209   x 
            x  O           37         0.876160   0.373893   0.670531   x 
            x  O           38         0.375109   0.874895   0.079689   x 
            x  O           39         0.125020   0.330615   0.624460   x 
            x  O           40         0.625221   0.919953   0.124518   x 
            x  O           41         0.919434   0.124968   0.625002   x 
            x  O           42         0.329706   0.623783   0.125359   x 
            x  O           43         0.125186   0.625017   0.920482   x 
            x  O           44         0.624150   0.125891   0.329248   x 
            x  O           45         0.420657   0.625935   0.625432   x 
            x  O           46         0.829609   0.124856   0.124853   x 
            x  O           47         0.124971   0.124833   0.830585   x 
            x  O           48         0.624851   0.624667   0.419986   x 
            x  O           49         0.876158   0.170398   0.873957   x 
            x  O           50         0.374516   0.579876   0.374695   x 
            x  O           51         0.170076   0.876117   0.874078   x 
            x  O           52         0.580060   0.374651   0.374396   x 
            x  O           53         0.874840   0.874825   0.169981   x 
            x  O           54         0.373952   0.374348   0.579889   x 
            x  O           55         0.124881   0.829695   0.124842   x 
            x  O           56         0.625185   0.420398   0.624591   x 
            x  Zr           1         0.499692   0.499695   0.499702   x 
            x  Zr           2         0.250323   0.750347  -0.000167   x 
            x  Zr           3         0.750010   0.000035   0.249872   x 
            x  Zr           4         0.750004   0.250073  -0.000006   x 
            x  Zr           5        -0.000007   0.749919   0.249827   x 
            x  Zr           6         0.499814  -0.000177  -0.000187   x 
            x  Zr           7         0.750031   0.500016   0.750163   x 
            x  Zr           8         0.750107   0.749923   0.500016   x 
            x  Zr           9         0.000037   0.499924  -0.000043   x 
            x  Sn           1         0.001340   0.248620   0.748610   x 
            x  Sn           2         0.249125   0.000851   0.749083   x 
            x  Sn           3         0.249558   0.249577   0.500388   x 
            x  Sn           4         0.250909   0.498985   0.250943   x 
            x  Sn           5         0.499013   0.250948   0.250938   x 
            x  Sn           6         0.499490   0.750568   0.750491   x 
            x  Sn           7         0.001318   0.001323   0.501325   x 
            x  La           1        -0.000237  -0.000158   0.000299   x 
            x  La           2         0.749793   0.250144   0.499898   x 
            x  La           3         0.250036   0.500298   0.750255   x 
            x  La           4         0.500112   0.750030   0.249982   x 
            x  La           5         0.249995   0.749691   0.499686   x 
            x  La           6         0.750076   0.500050   0.249914   x 
            x  La           7         0.500393   0.250170   0.750217   x 
            x  La           8        -0.000421   0.500424   0.499961   x 
            x  La           9         0.750025   0.749949   0.000024   x 
            x  La          10         0.249963  -0.000437   0.249598   x 
            x  La          11         0.249971   0.250038   0.000023   x 
            x  La          12         0.749773  -0.000120   0.750174   x 
            x  La          13         0.500568  -0.000303   0.499737   x 
            x  La          14        -0.000240   0.749666   0.750163   x 
            x  La          15        -0.000489   0.250014   0.249547   x 
            x  La          16         0.500199   0.500106  -0.000179   x 
            xxxxxxxxxxxxxxxxxxxxxxxxxxxxxxxxxxxxxxxxxxxxxxxxxxxxxxxxxxxx
 
 
                         No user defined ionic velocities
 
                           -------------------------------
                                   Details of Species
                           -------------------------------
 
                               Mass of species in AMU
                                    O   15.9994000
                                    Zr   91.2240000
                                    Sn  118.7100000
                                    La  138.9055000
 
                          Electric Quadrupole Moment (Barn)
                                    O   -0.0255800 Isotope 17
                                    Zr   -0.1760000 Isotope 91
                                    Sn    1.0000000 No Isotope Defined
                                    La    0.2000000 Isotope139
 
                          Files used for pseudopotentials:
                                    O 2|1.1|15|18|20|20:21(qc=7)
                                    Zr 3|2.1|7|8|9|40U:50:41:42
                                    Sn 3|2.2|7|8|9|50:51:42
                                    La 2|2.3|5|6|7|50U:60:51:52(qc=4.5)
 
                           -------------------------------
                              k-Points For BZ Sampling
                           -------------------------------
                       MP grid size for SCF calculation is  3  3  3
                            with an offset of   0.000  0.000  0.000
                       Number of kpoints used =   14
 
                           -------------------------------
                               Symmetry and Constraints
                           -------------------------------
 
                      Maximum deviation from symmetry =  0.00000         ANG
 
         There are no symmetry operations specified or generated for this cell
                      Number of ionic constraints     = 3
                      Point group of crystal =     1: C1, 1, 1
                      Space group of crystal =     1: P1, P 1
 
 
                         Centre of mass is constrained
             Set iprint > 1 for details of linear ionic constraints
 
                         Number of cell constraints= 0
                         Cell constraints are:  1 2 3 4 5 6
 
                         External pressure/stress (GPa)
                          0.00000   0.00000   0.00000
                                    0.00000   0.00000
                                              0.00000
  
+---------------- MEMORY AND SCRATCH DISK ESTIMATES PER PROCESS --------------+
|                                                     Memory          Disk    |
| Baseline code, static data and system overhead      839.0 MB         0.0 MB |
| BLAS internal memory storage                          0.0 MB         0.0 MB |
| Model and support data                              149.4 MB         0.0 MB |
| Electronic energy minimisation requirements          28.2 MB         0.0 MB |
| Force calculation requirements                        1.5 MB         0.0 MB |
| Stress calculation requirements                       1.8 MB         0.0 MB |
|                                               ----------------------------- |
| Approx. total storage required per process         1016.6 MB         0.0 MB |
|                                                                             |
| Requirements will fluctuate during execution and may exceed these estimates |
+-----------------------------------------------------------------------------+
Calculating finite basis set correction with  3 cut-off energies.
Calculating total energy with cut-off of  806.342eV.
------------------------------------------------------------------------ <-- SCF
SCF loop      Energy           Fermi           Energy gain       Timer   <-- SCF
                               energy          per atom          (sec)   <-- SCF
------------------------------------------------------------------------ <-- SCF
Initial  -5.53267957E+004  0.00000000E+000                        40.73  <-- SCF
      1  -6.37768025E+004  7.51090084E+000   9.60228048E+001      51.36  <-- SCF
      2  -6.63405094E+004  6.93289732E+000   2.91330325E+001      58.62  <-- SCF
      3  -6.64213754E+004  6.58094866E+000   9.18931600E-001      66.76  <-- SCF
      4  -6.64162227E+004  7.69577178E+000  -5.85527690E-002      76.30  <-- SCF
      5  -6.63107494E+004  7.11621788E+000  -1.19856105E+000      85.62  <-- SCF
      6  -6.63122256E+004  6.99970467E+000   1.67748714E-002      97.61  <-- SCF
      7  -6.63119286E+004  7.08466318E+000  -3.37423278E-003     107.46  <-- SCF
      8  -6.63119987E+004  7.08704509E+000   7.95719796E-004     120.52  <-- SCF
      9  -6.63120185E+004  7.08424962E+000   2.25939112E-004     131.62  <-- SCF
     10  -6.63120194E+004  7.08114715E+000   9.95342193E-006     141.98  <-- SCF
     11  -6.63120186E+004  7.08215066E+000  -9.34277950E-006     152.79  <-- SCF
     12  -6.63120188E+004  7.08150005E+000   2.38004069E-006     164.49  <-- SCF
     13  -6.63120188E+004  7.08060838E+000   1.34403798E-007     174.57  <-- SCF
     14  -6.63120188E+004  7.08021683E+000  -5.09020704E-007     184.76  <-- SCF
     15  -6.63120188E+004  7.07964454E+000  -1.03171895E-007     195.50  <-- SCF
     16  -6.63120188E+004  7.07938255E+000   3.19974224E-009     204.86  <-- SCF
     17  -6.63120188E+004  7.07930896E+000   2.31033904E-010     213.72  <-- SCF
     18  -6.63120188E+004  7.07924305E+000   2.74765824E-010     220.76  <-- SCF
------------------------------------------------------------------------ <-- SCF
 
Final energy, E             =  -66312.01875577     eV
Final free energy (E-TS)    =  -66312.01875577     eV
(energies not corrected for finite basis set)
 
NB est. 0K energy (E-0.5TS)      =  -66312.01875577     eV
 
Calculating total energy with cut-off of  811.342eV.
------------------------------------------------------------------------ <-- SCF
SCF loop      Energy           Fermi           Energy gain       Timer   <-- SCF
                               energy          per atom          (sec)   <-- SCF
------------------------------------------------------------------------ <-- SCF
Initial  -6.63120188E+004  0.00000000E+000                       222.88  <-- SCF
      1  -6.63120212E+004  7.07911275E+000   2.81238042E-005     231.41  <-- SCF
      2  -6.63120212E+004  7.07911275E+000   4.26210447E-010     238.75  <-- SCF
      3  -6.63120212E+004  7.07916328E+000   1.65715853E-008     247.07  <-- SCF
      4  -6.63120212E+004  7.07916215E+000  -2.16676898E-009     254.68  <-- SCF
      5  -6.63120212E+004  7.07917701E+000  -2.42283273E-010     260.83  <-- SCF
      6  -6.63120212E+004  7.07919503E+000  -8.56358173E-011     267.01  <-- SCF
------------------------------------------------------------------------ <-- SCF
 
Final energy, E             =  -66312.02123188     eV
Final free energy (E-TS)    =  -66312.02123188     eV
(energies not corrected for finite basis set)
 
NB est. 0K energy (E-0.5TS)      =  -66312.02123188     eV
 
Calculating total energy with cut-off of  816.342eV.
------------------------------------------------------------------------ <-- SCF
SCF loop      Energy           Fermi           Energy gain       Timer   <-- SCF
                               energy          per atom          (sec)   <-- SCF
------------------------------------------------------------------------ <-- SCF
Initial  -6.63120212E+004  0.00000000E+000                       269.11  <-- SCF
      1  -6.63120241E+004  7.07923825E+000   3.30813328E-005     277.65  <-- SCF
      2  -6.63120241E+004  7.07923825E+000   2.13597383E-010     284.59  <-- SCF
      3  -6.63120241E+004  7.07921821E+000   2.02803614E-008     290.89  <-- SCF
      4  -6.63120241E+004  7.07921499E+000   6.09293918E-010     297.09  <-- SCF
      5  -6.63120241E+004  7.07920877E+000  -1.17837134E-010     303.37  <-- SCF
------------------------------------------------------------------------ <-- SCF
 
Final energy, E             =  -66312.02414487     eV
Final free energy (E-TS)    =  -66312.02414487     eV
(energies not corrected for finite basis set)
 
NB est. 0K energy (E-0.5TS)      =  -66312.02414487     eV
 
 For future reference: finite basis dEtot/dlog(Ecut) =      -0.438083eV
 Total energy corrected for finite basis set =  -66312.024156 eV
 
  =====================================================================
  +       Calculation of Nuclear Magnetic Resonance Parameters        +
  + ================================================================= +
 
  Starting Calculation of Electric Field Gradient Tensors         |<-- EFG
  +---------------- MEMORY AND SCRATCH DISK ESTIMATES PER PROCESS --------------+
  |                                                     Memory          Disk    |
  | Model and support data                              151.1 MB         0.0 MB |
  | NMR EFG calculation requirements                     27.3 MB         0.0 MB |
  |                                               ----------------------------- |
  | Approx. total storage required per process          178.4 MB         0.0 MB |
  |                                                                             |
  | Requirements will fluctuate during execution and may exceed these estimates |
  +-----------------------------------------------------------------------------+
  Total Time for EFG Tensors                      32.30 sec       |<-- EFG
 
  Starting Calculation of Chemical Shielding Tensors              |<-- NMR
  +---------------- MEMORY AND SCRATCH DISK ESTIMATES PER PROCESS --------------+
  |                                                     Memory          Disk    |
  | Model and support data                              151.1 MB         0.0 MB |
  | NMR chemical shift calculation requirements          90.3 MB         0.0 MB |
  |                                               ----------------------------- |
  | Approx. total storage required per process          241.4 MB         0.0 MB |
  |                                                                             |
  | Requirements will fluctuate during execution and may exceed these estimates |
  +-----------------------------------------------------------------------------+
  Starting k-point:   1 of   1                                    |<-- NMR
  Total Time for step 1 of 6:                    268.24 sec       |<-- NMR
  Total Time for step 2 of 6:                    268.53 sec       |<-- NMR
  Total Time for step 3 of 6:                    269.53 sec       |<-- NMR
  Total Time for step 4 of 6:                    268.04 sec       |<-- NMR
  Total Time for step 5 of 6:                    267.30 sec       |<-- NMR
  Total Time for step 6 of 6:                    265.76 sec       |<-- NMR
  Total Time for Chemical Shielding Tensors     2380.34 sec       |<-- NMR
 
  ========================================================================
  |           Chemical Shielding and Electric Field Gradient Tensors     |
  |----------------------------------------------------------------------|
  |     Nucleus                Shielding tensor             EFG Tensor   |
  |  Species       Ion    Iso(ppm)   Aniso(ppm)  Asym    Cq(MHz)    Eta  |
  |    O           1     -317.81       5.82      0.78  -4.727E-02   0.89 |
  |    O           2     -316.70     -13.20      1.00  -6.408E-02   0.20 |
  |    O           3     -316.66     -10.67      0.51   4.287E-02   0.29 |
  |    O           4     -317.24      13.36      0.63  -6.161E-02   0.94 |
  |    O           5     -318.36      -8.00      0.83  -6.524E-02   0.50 |
  |    O           6     -318.97       8.57      0.69   7.564E-02   0.69 |
  |    O           7     -318.31      11.30      0.46   7.416E-02   0.80 |
  |    O           8     -318.04      -9.14      0.92  -3.333E-02   0.65 |
  |    O           9      -82.66      82.40      0.17  -3.207E+00   0.06 |
  |    O          10      -19.54     -40.95      0.81   3.860E+00   0.88 |
  |    O          11     -160.41     156.82      0.80   1.102E+00   0.75 |
  |    O          12     -166.00     161.84      0.77   1.009E+00   0.99 |
  |    O          13      -82.42      82.75      0.17  -3.184E+00   0.07 |
  |    O          14      -87.61      74.55      0.17  -3.202E+00   0.11 |
  |    O          15      -81.54      82.27      0.29  -3.197E+00   0.09 |
  |    O          16      -19.66      38.79      0.76   3.916E+00   0.83 |
  |    O          17      -19.92     -38.50      0.99   3.861E+00   0.86 |
  |    O          18      -83.93      82.58      0.25  -3.192E+00   0.10 |
  |    O          19      -89.89      83.48      0.19  -3.214E+00   0.13 |
  |    O          20     -160.33     151.16      0.79   1.120E+00   0.68 |
  |    O          21     -163.36     158.92      0.79   1.058E+00   0.87 |
  |    O          22     -163.52     158.60      0.78   1.049E+00   0.87 |
  |    O          23      -87.14      86.39      0.19  -3.160E+00   0.07 |
  |    O          24      -11.97      57.94      0.64   3.852E+00   0.88 |
  |    O          25      -13.56      59.29      0.61   3.835E+00   0.88 |
  |    O          26      -83.26      80.23      0.12  -3.188E+00   0.08 |
  |    O          27      -90.08      85.85      0.19  -3.246E+00   0.13 |
  |    O          28     -160.49     156.21      0.79   1.102E+00   0.75 |
  |    O          29     -161.68     155.61      0.81   1.100E+00   0.76 |
  |    O          30      -12.53      59.05      0.18   3.972E+00   0.80 |
  |    O          31       -3.46      68.25      0.65   3.852E+00   0.89 |
  |    O          32      -86.75      82.48      0.14  -3.147E+00   0.07 |
  |    O          33     -161.03     154.64      0.82   1.090E+00   0.78 |
  |    O          34      -84.03      85.39      0.18  -3.151E+00   0.06 |
  |    O          35      -87.21      93.87      0.31  -3.200E+00   0.10 |
  |    O          36      -84.96      81.40      0.17  -3.164E+00   0.07 |
  |    O          37      -85.79      74.84      0.01  -3.232E+00   0.09 |
  |    O          38     -162.05     158.01      0.84   1.117E+00   0.76 |
  |    O          39      -20.88      38.71      0.81   3.913E+00   0.84 |
  |    O          40     -164.50     159.86      0.77   1.022E+00   0.89 |
  |    O          41      -20.90      40.69      0.30   3.967E+00   0.79 |
  |    O          42      -87.28      79.39      0.11  -3.156E+00   0.09 |
  |    O          43     -160.41     150.08      0.81   1.115E+00   0.69 |
  |    O          44      -83.10      83.14      0.30  -3.183E+00   0.09 |
  |    O          45      -82.96      82.33      0.25  -3.171E+00   0.06 |
  |    O          46     -160.45     156.58      0.80   1.103E+00   0.75 |
  |    O          47      -22.78      40.82      0.24   3.968E+00   0.79 |
  |    O          48     -164.95     154.01      0.78   1.040E+00   0.82 |
  |    O          49      -87.52      75.26      0.04  -3.202E+00   0.09 |
  |    O          50      -90.99      92.68      0.21  -3.202E+00   0.10 |
  |    O          51      -90.53      77.53      0.13  -3.207E+00   0.09 |
  |    O          52      -91.76      86.39      0.13  -3.256E+00   0.12 |
  |    O          53     -165.52     161.93      0.76   1.031E+00   0.97 |
  |    O          54      -90.21      85.59      0.10  -3.173E+00   0.07 |
  |    O          55     -160.86     158.24      0.79   1.095E+00   0.74 |
  |    O          56     -160.69     153.42      0.79   1.101E+00   0.68 |
  |    Zr          1     1614.93    -119.48      0.11  -3.702E+01   0.07 |
  |    Zr          2     1628.36    -125.77      0.17  -3.757E+01   0.19 |
  |    Zr          3     1633.88    -127.81      0.15  -3.844E+01   0.09 |
  |    Zr          4     1634.23    -129.88      0.17  -3.825E+01   0.18 |
  |    Zr          5     1634.48    -127.83      0.16  -3.871E+01   0.09 |
  |    Zr          6     1629.32    -125.05      0.09  -3.745E+01   0.14 |
  |    Zr          7     1634.57    -129.17      0.16  -3.855E+01   0.14 |
  |    Zr          8     1633.88    -126.32      0.16  -3.821E+01   0.10 |
  |    Zr          9     1634.59    -125.95      0.14  -3.810E+01   0.09 |
  |    Sn          1     3240.21     -47.44      0.17   1.252E+02   0.07 |
  |    Sn          2     3246.07     -58.56      0.07   1.222E+02   0.02 |
  |    Sn          3     3244.53     -62.35      0.34   1.190E+02   0.11 |
  |    Sn          4     3249.46     -47.74      0.56   1.277E+02   0.15 |
  |    Sn          5     3250.10     -47.31      0.44   1.283E+02   0.13 |
  |    Sn          6     3251.95     -46.23      0.03   1.308E+02   0.09 |
  |    Sn          7     3240.92     -48.01      0.26   1.238E+02   0.10 |
  |    La          1     4701.86     755.51      0.06  -8.256E+01   0.10 |
  |    La          2     4654.21     654.95      0.11  -7.998E+01   0.19 |
  |    La          3     4661.84     652.67      0.08  -8.100E+01   0.16 |
  |    La          4     4752.91     871.25      0.04  -8.628E+01   0.08 |
  |    La          5     4604.78     519.74      0.09  -7.724E+01   0.12 |
  |    La          6     4750.25     874.24      0.05  -8.514E+01   0.09 |
  |    La          7     4711.85     747.52      0.03  -8.447E+01   0.10 |
  |    La          8     4653.97     632.14      0.01  -7.994E+01   0.03 |
  |    La          9     4748.29     879.86      0.06  -8.418E+01   0.08 |
  |    La         10     4658.83     625.51      0.00  -8.084E+01   0.03 |
  |    La         11     4605.99     542.22      0.10  -7.738E+01   0.22 |
  |    La         12     4656.41     658.95      0.10  -8.021E+01   0.18 |
  |    La         13     4605.42     512.96      0.08  -7.720E+01   0.07 |
  |    La         14     4707.61     753.46      0.04  -8.367E+01   0.10 |
  |    La         15     4660.87     627.02      0.00  -8.105E+01   0.03 |
  |    La         16     4650.68     662.68      0.12  -7.927E+01   0.16 |
  ========================================================================
 
 *********************** Forces ***********************
 *                                                    *
 *            Cartesian components (eV/A)             *
 * -------------------------------------------------- *
 *                   x            y            z      *
 *                                                    *
 * O         1      0.00662      0.00795      0.00548 *
 * O         2      0.00793     -0.00065      0.00384 *
 * O         3      0.00799      0.00428      0.00346 *
 * O         4     -0.00207     -0.00137      0.00252 *
 * O         5     -0.00820     -0.00784     -0.00395 *
 * O         6     -0.00764     -0.00098     -0.01360 *
 * O         7     -0.00687     -0.00106     -0.00592 *
 * O         8     -0.00699     -0.00889     -0.00740 *
 * O         9      0.00059      0.01679      0.00342 *
 * O        10      0.01164     -0.00874     -0.02059 *
 * O        11      0.02016      0.00217     -0.00328 *
 * O        12      0.00637     -0.01399     -0.01020 *
 * O        13      0.01843     -0.00159      0.00391 *
 * O        14     -0.01772     -0.02464     -0.00378 *
 * O        15     -0.01240     -0.01342      0.00801 *
 * O        16      0.00190     -0.00677     -0.01635 *
 * O        17     -0.00219     -0.00236     -0.01633 *
 * O        18      0.02530     -0.02280     -0.01713 *
 * O        19     -0.01566      0.00855     -0.03542 *
 * O        20      0.00750     -0.00847     -0.03059 *
 * O        21      0.00059     -0.00854      0.02208 *
 * O        22      0.00732      0.00675      0.01918 *
 * O        23     -0.01953     -0.00113     -0.00429 *
 * O        24     -0.00965     -0.01733      0.01045 *
 * O        25     -0.01871     -0.00930      0.00604 *
 * O        26     -0.00500      0.01663      0.03514 *
 * O        27     -0.02532      0.00844     -0.00378 *
 * O        28     -0.02204      0.01195      0.02098 *
 * O        29      0.00554     -0.00161      0.02450 *
 * O        30     -0.00615      0.00031      0.00237 *
 * O        31     -0.00754      0.00693     -0.02221 *
 * O        32      0.01124      0.02715     -0.00070 *
 * O        33     -0.01765      0.01507      0.02225 *
 * O        34     -0.00286     -0.02088     -0.00421 *
 * O        35      0.01436      0.01633     -0.00598 *
 * O        36      0.01569     -0.00286      0.02822 *
 * O        37      0.01547     -0.01474      0.01599 *
 * O        38      0.00132      0.00882      0.02623 *
 * O        39      0.00674      0.00059     -0.01513 *
 * O        40     -0.00189     -0.00146     -0.01281 *
 * O        41      0.00354     -0.01409     -0.01237 *
 * O        42     -0.01646     -0.02560     -0.00642 *
 * O        43      0.00535     -0.01332     -0.02930 *
 * O        44     -0.02062      0.01624     -0.01736 *
 * O        45      0.00188      0.02505      0.00584 *
 * O        46      0.02070      0.00836     -0.00271 *
 * O        47      0.01107     -0.00272     -0.01377 *
 * O        48      0.00238      0.00407     -0.00961 *
 * O        49      0.00526      0.01548     -0.01074 *
 * O        50     -0.02052     -0.01260      0.00257 *
 * O        51      0.01317      0.00717     -0.01191 *
 * O        52     -0.02378     -0.00299      0.00375 *
 * O        53     -0.00143      0.00457      0.00332 *
 * O        54     -0.02317     -0.00679      0.00199 *
 * O        55      0.01459      0.02030     -0.00560 *
 * O        56      0.00494     -0.02698     -0.00991 *
 * Zr        1      0.01985      0.00232     -0.01298 *
 * Zr        2      0.01836      0.00784      0.00431 *
 * Zr        3      0.00535     -0.02842      0.00277 *
 * Zr        4      0.00411      0.00632      0.00324 *
 * Zr        5     -0.03757     -0.00861     -0.00386 *
 * Zr        6      0.01379     -0.01796      0.01487 *
 * Zr        7      0.01545      0.00960      0.01926 *
 * Zr        8      0.01088      0.01607     -0.01594 *
 * Zr        9     -0.02334      0.02645      0.01090 *
 * Sn        1      0.01901     -0.02607     -0.02597 *
 * Sn        2     -0.01639      0.01022     -0.00953 *
 * Sn        3     -0.00166     -0.00361      0.01031 *
 * Sn        4      0.02632     -0.02016      0.02478 *
 * Sn        5     -0.01320      0.03597      0.02837 *
 * Sn        6     -0.00568      0.02165      0.02874 *
 * Sn        7      0.03109      0.02779      0.02500 *
 * La        1     -0.00839     -0.00949     -0.01671 *
 * La        2      0.00353      0.00677     -0.00355 *
 * La        3     -0.00570     -0.00363     -0.00431 *
 * La        4      0.01589     -0.02266     -0.01672 *
 * La        5     -0.00034      0.00471      0.00332 *
 * La        6     -0.01620      0.00796     -0.01163 *
 * La        7     -0.01153     -0.00690     -0.01024 *
 * La        8     -0.00117     -0.01509     -0.00614 *
 * La        9     -0.00470     -0.00421      0.00711 *
 * La       10     -0.00302      0.00844      0.00631 *
 * La       11     -0.00102     -0.00497     -0.00326 *
 * La       12      0.01182     -0.00590      0.01206 *
 * La       13     -0.01024      0.00051     -0.00101 *
 * La       14     -0.00164      0.01552      0.01272 *
 * La       15      0.00181      0.00340      0.01237 *
 * La       16      0.01097      0.01273      0.01725 *
 *                                                    *
 ******************************************************
 
 ***************** Stress Tensor *****************
 *                                               *
 *          Cartesian components (GPa)           *
 * --------------------------------------------- *
 *             x             y             z     *
 *                                               *
 *  x     -0.059157     -0.027021     -0.015916  *
 *  y     -0.027021     -0.056735     -0.033139  *
 *  z     -0.015916     -0.033139      0.046505  *
 *                                               *
 *  Pressure:    0.0231                          *
 *                                               *
 *************************************************
 
 Pseudo atomic calculation performed for O 2s2 2p4
 
 Converged in 39 iterations to a total energy of -432.6554 eV
 
 
 Pseudo atomic calculation performed for Zr 4s2 4p6 4d2 5s2
 
 Converged in 38 iterations to a total energy of -1285.4931 eV
 
 
 Pseudo atomic calculation performed for Sn 4d10 5s2 5p2
 
 Converged in 48 iterations to a total energy of -2044.5413 eV
 
 
 Pseudo atomic calculation performed for La 5s2 5p6 5d1 6s2
 
 Converged in 34 iterations to a total energy of -968.0373 eV
 
Charge spilling parameter for spin component 1 = 0.24%
 
     Atomic Populations (Mulliken)
     -----------------------------
Species   Ion     s      p      d      f     Total  Charge (e)
==============================================================
  O        1     1.87   5.00   0.00   0.00   6.87    -0.87
  O        2     1.87   5.00   0.00   0.00   6.87    -0.87
  O        3     1.87   5.00   0.00   0.00   6.87    -0.87
  O        4     1.87   5.00   0.00   0.00   6.87    -0.87
  O        5     1.87   5.00   0.00   0.00   6.87    -0.87
  O        6     1.87   5.00   0.00   0.00   6.87    -0.87
  O        7     1.87   5.00   0.00   0.00   6.87    -0.87
  O        8     1.87   5.00   0.00   0.00   6.87    -0.87
  O        9     1.87   4.99   0.00   0.00   6.85    -0.85
  O       10     1.88   5.02   0.00   0.00   6.91    -0.91
  O       11     1.86   4.95   0.00   0.00   6.80    -0.80
  O       12     1.86   4.94   0.00   0.00   6.80    -0.80
  O       13     1.87   4.99   0.00   0.00   6.85    -0.85
  O       14     1.87   4.99   0.00   0.00   6.85    -0.85
  O       15     1.87   4.99   0.00   0.00   6.85    -0.85
  O       16     1.88   5.02   0.00   0.00   6.91    -0.91
  O       17     1.88   5.02   0.00   0.00   6.91    -0.91
  O       18     1.87   4.99   0.00   0.00   6.85    -0.85
  O       19     1.87   4.99   0.00   0.00   6.85    -0.85
  O       20     1.86   4.95   0.00   0.00   6.80    -0.80
  O       21     1.86   4.95   0.00   0.00   6.80    -0.80
  O       22     1.86   4.95   0.00   0.00   6.80    -0.80
  O       23     1.87   4.99   0.00   0.00   6.86    -0.86
  O       24     1.88   5.02   0.00   0.00   6.91    -0.91
  O       25     1.88   5.02   0.00   0.00   6.91    -0.91
  O       26     1.87   4.99   0.00   0.00   6.86    -0.86
  O       27     1.87   4.99   0.00   0.00   6.85    -0.85
  O       28     1.86   4.95   0.00   0.00   6.80    -0.80
  O       29     1.86   4.95   0.00   0.00   6.80    -0.80
  O       30     1.88   5.02   0.00   0.00   6.91    -0.91
  O       31     1.88   5.02   0.00   0.00   6.91    -0.91
  O       32     1.87   4.99   0.00   0.00   6.85    -0.85
  O       33     1.86   4.95   0.00   0.00   6.80    -0.80
  O       34     1.87   4.99   0.00   0.00   6.85    -0.85
  O       35     1.87   4.99   0.00   0.00   6.86    -0.86
  O       36     1.87   4.99   0.00   0.00   6.86    -0.86
  O       37     1.87   4.99   0.00   0.00   6.85    -0.85
  O       38     1.86   4.95   0.00   0.00   6.80    -0.80
  O       39     1.88   5.02   0.00   0.00   6.91    -0.91
  O       40     1.86   4.94   0.00   0.00   6.80    -0.80
  O       41     1.88   5.03   0.00   0.00   6.91    -0.91
  O       42     1.87   4.98   0.00   0.00   6.85    -0.85
  O       43     1.86   4.95   0.00   0.00   6.80    -0.80
  O       44     1.87   4.99   0.00   0.00   6.85    -0.85
  O       45     1.87   4.99   0.00   0.00   6.85    -0.85
  O       46     1.86   4.95   0.00   0.00   6.80    -0.80
  O       47     1.88   5.03   0.00   0.00   6.91    -0.91
  O       48     1.86   4.94   0.00   0.00   6.80    -0.80
  O       49     1.87   4.99   0.00   0.00   6.85    -0.85
  O       50     1.87   4.99   0.00   0.00   6.86    -0.86
  O       51     1.87   4.99   0.00   0.00   6.86    -0.86
  O       52     1.87   4.99   0.00   0.00   6.86    -0.86
  O       53     1.85   4.94   0.00   0.00   6.80    -0.80
  O       54     1.87   4.99   0.00   0.00   6.86    -0.86
  O       55     1.86   4.95   0.00   0.00   6.80    -0.80
  O       56     1.86   4.95   0.00   0.00   6.80    -0.80
  Zr       1     2.37   6.50   1.92   0.00  10.79     1.21
  Zr       2     2.37   6.48   1.92   0.00  10.77     1.23
  Zr       3     2.37   6.47   1.93   0.00  10.77     1.23
  Zr       4     2.36   6.47   1.93   0.00  10.76     1.24
  Zr       5     2.37   6.48   1.93   0.00  10.77     1.23
  Zr       6     2.37   6.48   1.92   0.00  10.78     1.22
  Zr       7     2.37   6.47   1.93   0.00  10.77     1.23
  Zr       8     2.37   6.47   1.93   0.00  10.77     1.23
  Zr       9     2.37   6.47   1.93   0.00  10.77     1.23
  Sn       1     1.05   1.31  10.00   0.00  12.36     1.64
  Sn       2     1.05   1.32  10.00   0.00  12.36     1.64
  Sn       3     1.05   1.32  10.00   0.00  12.36     1.64
  Sn       4     1.05   1.31  10.00   0.00  12.36     1.64
  Sn       5     1.05   1.31  10.00   0.00  12.36     1.64
  Sn       6     1.05   1.31  10.00   0.00  12.36     1.64
  Sn       7     1.05   1.32  10.00   0.00  12.36     1.64
  La       1     2.07   6.16   1.19   0.00   9.42     1.58
  La       2     2.08   6.17   1.19   0.00   9.45     1.55
  La       3     2.07   6.17   1.19   0.00   9.44     1.56
  La       4     2.02   6.15   1.19   0.00   9.36     1.64
  La       5     2.10   6.19   1.19   0.00   9.48     1.52
  La       6     2.02   6.14   1.19   0.00   9.36     1.64
  La       7     2.05   6.16   1.19   0.00   9.41     1.59
  La       8     2.09   6.17   1.19   0.00   9.46     1.54
  La       9     2.02   6.14   1.20   0.00   9.36     1.64
  La      10     2.08   6.18   1.19   0.00   9.45     1.55
  La      11     2.10   6.18   1.19   0.00   9.48     1.52
  La      12     2.07   6.17   1.19   0.00   9.43     1.57
  La      13     2.11   6.19   1.19   0.00   9.49     1.51
  La      14     2.04   6.16   1.19   0.00   9.40     1.60
  La      15     2.07   6.18   1.19   0.00   9.44     1.56
  La      16     2.07   6.17   1.19   0.00   9.43     1.57
==============================================================
 
            Bond              Population      Length (A)
============================================================
         O 52 -- Sn 5              0.35        2.10087
         O 50 -- Sn 4              0.35        2.10174
         O 27 -- Sn 6              0.35        2.10253
         O 35 -- Sn 6              0.34        2.10295
         O 41 -- Sn 7              0.34        2.10446
         O 41 -- Sn 1              0.34        2.10552
         O 47 -- Sn 1              0.34        2.10577
         O 30 -- Sn 4              0.34        2.10588
         O 15 -- Sn 6              0.35        2.10610
         O 30 -- Sn 5              0.34        2.10671
         O 16 -- Sn 2              0.34        2.10737
         O 47 -- Sn 2              0.33        2.10781
         O 54 -- Sn 3              0.35        2.10789
         O 18 -- Sn 4              0.34        2.10792
         O 13 -- Sn 4              0.35        2.10807
         O 44 -- Sn 5              0.34        2.10862
         O 45 -- Sn 6              0.34        2.10863
         O 9  -- Sn 5              0.35        2.10866
         O 19 -- Sn 6              0.34        2.10872
         O 16 -- Sn 7              0.34        2.10891
         O 17 -- Sn 3              0.34        2.10917
         O 37 -- Sn 1              0.34        2.10942
         O 39 -- Sn 3              0.34        2.10961
         O 23 -- Sn 2              0.34        2.10984
         O 26 -- Sn 7              0.34        2.11005
         O 39 -- Sn 1              0.34        2.11011
         O 51 -- Sn 2              0.35        2.11025
         O 38 -- Zr 2              0.41        2.11066
         O 14 -- Sn 5              0.34        2.11117
         O 34 -- Sn 1              0.34        2.11171
         O 10 -- Sn 2              0.34        2.11186
         O 49 -- Sn 1              0.34        2.11198
         O 36 -- Sn 7              0.34        2.11198
         O 17 -- Sn 7              0.34        2.11229
         O 22 -- Zr 7              0.42        2.11283
         O 38 -- Zr 6              0.41        2.11301
         O 11 -- Zr 8              0.42        2.11306
         O 32 -- Sn 7              0.34        2.11331
         O 28 -- Zr 4              0.42        2.11332
         O 46 -- Zr 3              0.42        2.11349
         O 24 -- Sn 3              0.34        2.11362
         O 28 -- Zr 7              0.42        2.11363
         O 42 -- Sn 4              0.34        2.11375
         O 53 -- Zr 3              0.43        2.11382
         O 29 -- Zr 4              0.42        2.11398
         O 10 -- Sn 3              0.33        2.11421
         O 55 -- Zr 5              0.42        2.11428
         O 12 -- Zr 5              0.43        2.11435
         O 21 -- Zr 8              0.43        2.11436
         O 20 -- Zr 6              0.42        2.11438
         O 46 -- Zr 4              0.42        2.11443
         O 21 -- Zr 5              0.42        2.11447
         O 53 -- Zr 5              0.43        2.11453
         O 29 -- Zr 9              0.42        2.11483
         O 24 -- Sn 5              0.33        2.11491
         O 55 -- Zr 2              0.43        2.11493
         O 11 -- Zr 7              0.42        2.11509
         O 33 -- Zr 8              0.42        2.11509
         O 56 -- Zr 1              0.43        2.11516
         O 25 -- Sn 4              0.33        2.11518
         O 25 -- Sn 3              0.34        2.11528
         O 43 -- Zr 9              0.42        2.11549
         O 31 -- Sn 2              0.33        2.11558
         O 33 -- Zr 3              0.42        2.11561
         O 20 -- Zr 4              0.42        2.11568
         O 48 -- Zr 1              0.43        2.11579
         O 31 -- Sn 6              0.33        2.11580
         O 40 -- Zr 6              0.43        2.11582
         O 12 -- Zr 9              0.43        2.11601
         O 43 -- Zr 2              0.42        2.11637
         O 22 -- Zr 9              0.43        2.11668
         O 56 -- Zr 7              0.42        2.11745
         O 35 -- Zr 2              0.44        2.11758
         O 40 -- Zr 3              0.43        2.11758
         O 50 -- Zr 1              0.44        2.11771
         O 52 -- Zr 1              0.44        2.11874
         O 48 -- Zr 8              0.43        2.11972
         O 27 -- Zr 6              0.45        2.12003
         O 19 -- Zr 7              0.46        2.12194
         O 44 -- Zr 3              0.45        2.12329
         O 15 -- Zr 8              0.45        2.12361
         O 18 -- Zr 5              0.45        2.12387
         O 45 -- Zr 1              0.45        2.12420
         O 54 -- Zr 1              0.44        2.12461
         O 34 -- Zr 9              0.45        2.12488
         O 23 -- Zr 6              0.45        2.12510
         O 13 -- Zr 9              0.45        2.12573
         O 14 -- Zr 4              0.46        2.12593
         O 9  -- Zr 6              0.45        2.12704
         O 32 -- Zr 8              0.45        2.12711
         O 51 -- Zr 2              0.45        2.12749
         O 42 -- Zr 2              0.45        2.12763
         O 36 -- Zr 3              0.45        2.12796
         O 37 -- Zr 7              0.45        2.12821
         O 49 -- Zr 4              0.46        2.12863
         O 26 -- Zr 5              0.45        2.12869
         O 8  -- La 4              0.17        2.35718
         O 5  -- La 6              0.17        2.35783
         O 6  -- La 9              0.17        2.35818
         O 3  -- La 14             0.17        2.35860
         O 1  -- La 1              0.16        2.35868
         O 4  -- La 9              0.18        2.35888
         O 2  -- La 7              0.19        2.35935
         O 4  -- La 6              0.19        2.35935
         O 7  -- La 16             0.15        2.35951
         O 4  -- La 4              0.20        2.35967
         O 7  -- La 7              0.19        2.35983
         O 6  -- La 1              0.18        2.35990
         O 2  -- La 12             0.16        2.36020
         O 3  -- La 8              0.16        2.36049
         O 1  -- La 15             0.17        2.36064
         O 6  -- La 14             0.19        2.36067
         O 2  -- La 2              0.17        2.36069
         O 5  -- La 8              0.17        2.36086
         O 3  -- La 3              0.18        2.36092
         O 8  -- La 10             0.17        2.36116
         O 1  -- La 10             0.18        2.36118
         O 5  -- La 15             0.18        2.36133
         O 7  -- La 3              0.18        2.36140
         O 5  -- La 2              0.18        2.36166
         O 8  -- La 13             0.17        2.36181
         O 4  -- La 16             0.18        2.36207
         O 6  -- La 12             0.18        2.36219
         O 7  -- La 11             0.17        2.36229
         O 1  -- La 11             0.17        2.36241
         O 2  -- La 13             0.16        2.36248
         O 8  -- La 5              0.17        2.36259
         O 3  -- La 5              0.17        2.36271
         O 33 -- La 13             0.14        2.66520
         O 28 -- La 16             0.12        2.66712
         O 22 -- La 9              0.11        2.66819
         O 50 -- La 5              0.17        2.66823
         O 40 -- La 9              0.11        2.66848
         O 21 -- La 8              0.14        2.66875
         O 11 -- La 8              0.12        2.66972
         O 10 -- La 13             0.24        2.66982
         O 16 -- La 5              0.23        2.66998
         O 56 -- La 2              0.12        2.67037
         O 46 -- La 1              0.12        2.67112
         O 38 -- La 10             0.13        2.67127
         O 20 -- La 12             0.12        2.67133
         O 12 -- La 9              0.11        2.67139
         O 52 -- La 2              0.17        2.67150
         O 39 -- La 8              0.23        2.67171
         O 47 -- La 11             0.23        2.67172
         O 42 -- La 16             0.18        2.67179
         O 35 -- La 16             0.16        2.67200
         O 29 -- La 6              0.11        2.67221
         O 41 -- La 2              0.23        2.67230
         O 43 -- La 3              0.14        2.67232
         O 53 -- La 1              0.13        2.67233
         O 55 -- La 10             0.14        2.67259
         O 29 -- La 15             0.14        2.67265
         O 27 -- La 9              0.16        2.67265
         O 48 -- La 6              0.11        2.67266
         O 55 -- La 1              0.12        2.67272
         O 53 -- La 9              0.11        2.67277
         O 25 -- La 8              0.24        2.67286
         O 46 -- La 15             0.14        2.67309
         O 17 -- La 10             0.23        2.67323
         O 23 -- La 11             0.18        2.67336
         O 41 -- La 12             0.22        2.67358
         O 12 -- La 6              0.13        2.67392
         O 47 -- La 1              0.23        2.67400
         O 52 -- La 6              0.17        2.67418
         O 24 -- La 13             0.24        2.67420
         O 30 -- La 16             0.22        2.67427
         O 51 -- La 1              0.18        2.67451
         O 30 -- La 11             0.23        2.67475
         O 14 -- La 16             0.18        2.67485
         O 48 -- La 4              0.13        2.67488
         O 27 -- La 12             0.18        2.67490
         O 54 -- La 3              0.18        2.67506
         O 13 -- La 11             0.18        2.67513
         O 17 -- La 15             0.23        2.67541
         O 11 -- La 14             0.13        2.67546
         O 15 -- La 13             0.19        2.67550
         O 45 -- La 5              0.19        2.67576
         O 38 -- La 4              0.12        2.67577
         O 19 -- La 16             0.18        2.67580
         O 22 -- La 14             0.13        2.67587
         O 36 -- La 2              0.19        2.67596
         O 19 -- La 9              0.17        2.67605
         O 32 -- La 12             0.18        2.67621
         O 21 -- La 6              0.11        2.67629
         O 34 -- La 11             0.18        2.67637
         O 9  -- La 11             0.19        2.67654
         O 39 -- La 3              0.24        2.67662
         O 26 -- La 5              0.19        2.67668
         O 16 -- La 14             0.23        2.67670
         O 43 -- La 14             0.13        2.67712
         O 18 -- La 5              0.19        2.67714
         O 40 -- La 4              0.13        2.67749
         O 49 -- La 1              0.19        2.67750
         O 44 -- La 13             0.19        2.67761
         O 50 -- La 4              0.17        2.67777
         O 35 -- La 3              0.19        2.67818
         O 20 -- La 7              0.14        2.67847
         O 25 -- La 15             0.24        2.67847
         O 24 -- La 10             0.25        2.67862
         O 31 -- La 13             0.24        2.67863
         O 15 -- La 12             0.18        2.67865
         O 56 -- La 7              0.14        2.67894
         O 14 -- La 6              0.18        2.67900
         O 31 -- La 5              0.24        2.67911
         O 51 -- La 14             0.19        2.67914
         O 28 -- La 7              0.14        2.67915
         O 44 -- La 2              0.18        2.67919
         O 37 -- La 8              0.19        2.67922
         O 49 -- La 12             0.18        2.67942
         O 18 -- La 8              0.18        2.67960
         O 10 -- La 7              0.24        2.67961
         O 33 -- La 4              0.12        2.67972
         O 54 -- La 7              0.19        2.68026
         O 37 -- La 2              0.19        2.68033
         O 32 -- La 14             0.18        2.68186
         O 9  -- La 10             0.19        2.68191
         O 45 -- La 3              0.19        2.68196
         O 36 -- La 15             0.18        2.68199
         O 26 -- La 10             0.19        2.68214
         O 13 -- La 15             0.19        2.68234
         O 42 -- La 4              0.18        2.68259
         O 34 -- La 3              0.19        2.68334
         O 23 -- La 7              0.20        2.68335
         O 19 -- O 27             -0.06        2.79350
         O 47 -- O 51             -0.06        2.79550
         O 19 -- O 35             -0.06        2.79561
         O 30 -- O 42             -0.06        2.79665
         O 47 -- O 49             -0.06        2.79675
         O 44 -- O 52             -0.06        2.79676
         O 14 -- O 52             -0.06        2.79703
         O 14 -- O 30             -0.06        2.79709
         O 23 -- O 47             -0.06        2.79734
         O 18 -- O 50             -0.06        2.79746
         O 37 -- O 41             -0.06        2.79772
         O 39 -- O 54             -0.06        2.79773
         O 32 -- O 41             -0.06        2.79802
         O 37 -- O 39             -0.06        2.79809
         O 34 -- O 47             -0.06        2.79853
         O 25 -- O 39             -0.05        2.79987
         O 36 -- O 41             -0.06        2.79992
         O 16 -- O 51             -0.06        2.80013
         O 15 -- O 27             -0.06        2.80018
         O 41 -- O 49             -0.06        2.80019
         O 9  -- O 30             -0.06        2.80020
         O 17 -- O 24             -0.05        2.80037
         O 13 -- O 30             -0.06        2.80045
         O 16 -- O 31             -0.05        2.80083
         O 17 -- O 25             -0.05        2.80088
         O 16 -- O 26             -0.06        2.80133
         O 10 -- O 24             -0.05        2.80141
         O 10 -- O 31             -0.05        2.80168
         O 42 -- O 50             -0.06        2.80485
         O 18 -- O 25             -0.06        2.80546
         O 10 -- O 54             -0.06        2.80575
         O 16 -- O 32             -0.06        2.80600
         O 24 -- O 44             -0.06        2.80657
         O 35 -- O 45             -0.06        2.80663
         O 17 -- O 26             -0.06        2.80667
         O 17 -- O 36             -0.06        2.80716
         O 31 -- O 45             -0.06        2.80761
         O 15 -- O 31             -0.06        2.80864
         O 40 -- O 53             -0.04        2.80871
         O 12 -- O 53             -0.04        2.80871
         O 34 -- O 39             -0.05        2.80874
         O 10 -- O 23             -0.05        2.80892
         O 9  -- O 24             -0.05        2.81025
         O 13 -- O 25             -0.05        2.81085
         O 12 -- O 22             -0.04        2.81102
         O 12 -- O 29             -0.03        2.81189
         O 53 -- O 55             -0.03        2.81222
         O 46 -- O 53             -0.03        2.81271
         O 48 -- O 52             -0.03        2.81311
         O 38 -- O 40             -0.03        2.81340
         O 12 -- O 21             -0.03        2.81362
         O 27 -- O 40             -0.03        2.81451
         O 38 -- O 55             -0.03        2.81531
         O 19 -- O 22             -0.03        2.81543
         O 48 -- O 50             -0.03        2.81612
         O 11 -- O 21             -0.03        2.81634
         O 21 -- O 48             -0.03        2.81666
         O 29 -- O 46             -0.03        2.81679
         O 52 -- O 56             -0.03        2.81778
         O 11 -- O 22             -0.03        2.81785
         O 19 -- O 28             -0.03        2.81793
         O 20 -- O 27             -0.03        2.81837
         O 33 -- O 48             -0.03        2.81948
         O 22 -- O 43             -0.03        2.82051
         O 14 -- O 28             -0.03        2.82068
         O 35 -- O 43             -0.03        2.82128
         O 18 -- O 21             -0.03        2.82134
         O 33 -- O 40             -0.03        2.82176
         O 33 -- O 44             -0.03        2.82263
         O 20 -- O 28             -0.03        2.82318
         O 14 -- O 29             -0.03        2.82436
         O 15 -- O 33             -0.03        2.82453
         O 35 -- O 42             -0.03        2.82453
         O 28 -- O 56             -0.03        2.82482
         O 51 -- O 55             -0.03        2.82538
         O 45 -- O 50             -0.03        2.82607
         O 38 -- O 42             -0.03        2.82634
         O 37 -- O 56             -0.03        2.82659
         O 43 -- O 51             -0.03        2.82667
         O 20 -- O 49             -0.03        2.82668
         O 11 -- O 37             -0.03        2.82675
         O 54 -- O 56             -0.03        2.82691
         O 46 -- O 49             -0.03        2.82767
         O 9  -- O 38             -0.03        2.82835
         O 11 -- O 32             -0.03        2.82861
         O 20 -- O 23             -0.03        2.82966
         O 13 -- O 29             -0.03        2.82978
         O 34 -- O 43             -0.03        2.82990
         O 26 -- O 55             -0.03        2.83137
         O 36 -- O 46             -0.03        2.83165
         O 45 -- O 54             -0.03        2.83330
         O 15 -- O 32             -0.03        2.83454
         O 36 -- O 44             -0.03        2.83504
         O 9  -- O 23             -0.03        2.83605
         O 18 -- O 26             -0.03        2.83628
         O 13 -- O 34             -0.03        2.83833
============================================================
 
Initialisation time =     30.93 s
Calculation time    =   2701.94 s
Finalisation time   =      0.13 s
Total time          =   2733.00 s
Peak Memory Use     = 3656988 kB
  
Overall parallel efficiency rating: Good (73%)                                  
  
Data was distributed by:-
G-vector (64-way); efficiency rating: Good (75%)                                
k-point (14-way); efficiency rating: Excellent (96%)                            
