 +-------------------------------------------------+
 |                                                 |
 |      CCC   AA    SSS  TTTTT  EEEEE  PPPP        |
 |     C     A  A  S       T    E      P   P       |
 |     C     AAAA   SS     T    EEE    PPPP        |
 |     C     A  A     S    T    E      P           |
 |      CCC  A  A  SSS     T    EEEEE  P           |
 |                                                 |
 +-------------------------------------------------+
 |                                                 |
 | Welcome to Academic Release CASTEP version 16.1 |          
 | Ab Initio Total Energy Program                  |
 |                                                 |
 | Authors:                                        |
 | M. Segall, M. Probert, C. Pickard, P. Hasnip,   |
 | S. Clark, K. Refson, J. R. Yates, M. Payne      |
 |                                                 |
 | Contributors:                                   |
 | P. Lindan, P. Haynes, J. White, V. Milman,      |
 | N. Govind, M. Gibson, P. Tulip, V. Cocula,      |
 | B. Montanari, D. Quigley, M. Glover,            |
 | L. Bernasconi, A. Perlov, M. Plummer,           |
 | E. McNellis, J. Meyer, J. Gale, D. Jochym       |
 | J. Aarons, B. Walker, R. Gillen, D. Jones       |
 | T. Green, I. J. Bush, C. J. Armstrong,          |
 | E. J. Higgins, E. L. Brown, M. S. McFly         |
 |                                                 |
 | Copyright (c) 2000 - 2015                       |
 |                                                 |
 |     Distributed under the terms of an           |
 |     Agreement between the United Kingdom        |
 |     Car-Parrinello (UKCP) Consortium,           |
 |     Daresbury Laboratory and Accelrys, Inc.     |
 |                                                 |
 | Please cite                                     |
 |                                                 |
 |     "First principles methods using CASTEP"     |
 |                                                 |
 |         Zeitschrift fuer Kristallographie       |
 |           220(5-6) pp. 567-570 (2005)           |
 |                                                 |
 | S. J. Clark, M. D. Segall, C. J. Pickard,       |
 | P. J. Hasnip, M. J. Probert, K. Refson,         |
 | M. C. Payne                                     |
 |                                                 |
 |       in all publications arising from          |
 |              your use of CASTEP                 |
 |                                                 |
 +-------------------------------------------------+
 
 
 Compiled for linux_x86_64_cray-XT on Tue, 22 Mar 2022 15:42:52 +0000
 from code version b833c1ffcd7d+  Fri, 13 Jun 2014 17:24:31 +0100
 Compiler: Cray Fortran 11.0.4; Optimisation: intermediate
 MATHLIBS: LibSci (LAPACK version 3.6.1)
 FFT Lib : default
 Fundamental constants values: CODATA 2010
 
 Run started: Fri, 25 Mar 2022 21:47:52 +0000
 +-------------------------------------------------+
 |                                                 |
 |           N   N    M   M    RRRR                |
 |           NN  N    MM MM    R   R               |
 |           N N N    M M M    RRRR                |
 |           N  NN    M   M    R  R                |
 |           N   N    M   M    R   R               |
 |                                                 |
 +-------------------------------------------------+
 |                                                 |
 | Welcome to Materials Studio CASTEP-NMR          |
 |                                                 |
 | Authors:                                        |
 | J.R. Yates, C.J. Pickard, F. Mauri              |
 |                                                 |
 | Contributors:                                   |
 | T.F.G. Green, S.A. Joyce                        |
 |                                                 |
 | Copyright (c) 2004 - 2015                       |
 |                                                 |
 | Please cite the appropriate publications in all |
 | work arising from your use of CASTEP NMR.       |
 |                                                 |
 | For NMR Shielding Tensors cite:                 |
 |    "All-electron magnetic response with         |
 |    pseudopotentials: NMR chemical shifts",      |
 |    C. J. Pickard, F. Mauri;                     |
 |    Physical Review B63 245101 (2001), and       |
 |                                                 |
 |    "Calculation of NMR Chemical Shifts          |
 |    for extended systems using                   |
 |    Ultrasoft Pseudopotentials",                 |
 |    J. R. Yates, C. J. Pickard and F. Mauri      |
 |    Physical Review B76 024401 (2007)            |
 |                                                 |
 | For Electric Field Gradients cite:              |
 |   "Accurate First Principles Prediction of 17O  |
 |    NMR Parameters in SiO2: Assignment of the    |
 |    Zeolite Ferrierite Spectrum"                 |
 |    M. Profeta, F. Mauri and C. J. Pickard       |
 |    J. Amer. Chem. Soc. 125 541 (2003)           |
 |                                                 |
 | For Spin-Spin (J) Couplings cite:               |
 |   "A first principles theory of NMR J-coupling  |
 |   in solid-state systems"                       |
 |   S.A. Joyce, J.R. Yates, C.J. Pickard, F. Mauri|
 |   J. Chem. Phys. 127 204107 (2007)              |
 |                                                 |
 |   "Relativistic NMR J-coupling with ultrasoft   |
 |   pseudopotentials and the zeroth-order regular |
 |   approximation"                                |
 |   T.F.G. Green and J.R. Yates                   |
 |   J. Chem. Phys. 140 234106 (2014)              |
 |                                                 |
 +-------------------------------------------------+
 
 
 Atomic calculation performed for O: 1s2 2s2 2p4
 
 Converged in 44 iterations to an ae energy of -2040.855 eV
 
 
 Atomic calculation performed for O: 1s2 2s2 2p4
 
 Exceeded max iterations: converged to 0.000000062 eV
 
   ============================================================                
   | Pseudopotential Report - Date of generation 25-03-2022   |                
   ------------------------------------------------------------                
   | Element: O Ionic charge:  6.00 Level of theory: PBE      |                
   | Atomic Solver: ZORA (scalar)                             |                
   |                                                          |                
   |               Reference Electronic Structure             |                
   |         Orbital         Occupation         Energy        |                
   |            2s              2.000           -0.881        |                
   |            2p              4.000           -0.332        |                
   |                                                          |                
   |                 Pseudopotential Definition               |                
   |        Beta     l      e      Rc     scheme   norm       |                
   |          1      0   -0.881   1.100     qc      0         |                
   |          2      0    0.250   1.100     qc      0         |                
   |          3      1   -0.332   1.100     qc      0         |                
   |          4      1    0.250   1.100     qc      0         |                
   |         loc     2    0.000   1.100     pn      0         |                
   |                                                          |                
   | Augmentation charge Rinner = 0.769                       |                
   | Partial core correction Rc = 0.769                       |                
   ------------------------------------------------------------                
   | "2|1.1|15|18|20|20:21(qc=7)"                             |                
   ------------------------------------------------------------                
   |      Author: Chris J. Pickard, Cambridge University      |                
   ============================================================                
 
 Atomic calculation performed for Zr: 1s2 2s2 2p6 3s2 3p6 3d10 4s2 4p6 4d2 5s2
 
 Converged in 52 iterations to an ae energy of -97719.888 eV
 
 
 Atomic calculation performed for Zr: 1s2 2s2 2p6 3s2 3p6 3d10 4s2 4p6 4d2 5s2
 
 Exceeded max iterations: converged to 0.000000936 eV
 
 Warning: ion_atom_descreen_psp: negative charge density encountered
   ============================================================                
   | Pseudopotential Report - Date of generation 25-03-2022   |                
   ------------------------------------------------------------                
   | Element: Zr Ionic charge: 12.00 Level of theory: PBE     |                
   | Atomic Solver: ZORA (scalar)                             |                
   |                                                          |                
   |               Reference Electronic Structure             |                
   |         Orbital         Occupation         Energy        |                
   |            4s              2.000           -2.003        |                
   |            4p              6.000           -1.193        |                
   |            5s              2.000           -0.163        |                
   |            4d              2.000           -0.132        |                
   |                                                          |                
   |                 Pseudopotential Definition               |                
   |        Beta     l      e      Rc     scheme   norm       |                
   |          1      0   -2.003   2.105     qc      0         |                
   |          2      0   -0.163   2.105     qc      0         |                
   |          3      0    0.250   2.105     qc      0         |                
   |          4      1   -1.193   2.105     qc      0         |                
   |          5      1    0.250   2.105     qc      0         |                
   |          6      2   -0.132   2.105     qc      0         |                
   |          7      2    0.250   2.105     qc      0         |                
   |         loc     3    0.000   2.105     pn      0         |                
   |                                                          |                
   | Augmentation charge Rinner = 1.471                       |                
   | Partial core correction Rc = 1.471                       |                
   ------------------------------------------------------------                
   | "3|2.1|7|8|9|40U:50:41:42"                               |                
   ------------------------------------------------------------                
   |      Author: Chris J. Pickard, Cambridge University      |                
   ============================================================                
 
 Atomic calculation performed for Sn:
 1s2 2s2 2p6 3s2 3p6 3d10 4s2 4p6 4d10 5s2 5p2
 
 Converged in 58 iterations to an ae energy of -167539.320 eV
 
 
 Atomic calculation performed for Sn:
 1s2 2s2 2p6 3s2 3p6 3d10 4s2 4p6 4d10 5s2 5p2
 
 Exceeded max iterations: converged to -0.000000491 eV
 
   ============================================================                
   | Pseudopotential Report - Date of generation 25-03-2022   |                
   ------------------------------------------------------------                
   | Element: Sn Ionic charge: 14.00 Level of theory: PBE     |                
   | Atomic Solver: ZORA (scalar)                             |                
   |                                                          |                
   |               Reference Electronic Structure             |                
   |         Orbital         Occupation         Energy        |                
   |            4d             10.000           -0.950        |                
   |            5s              2.000           -0.388        |                
   |            5p              2.000           -0.136        |                
   |                                                          |                
   |                 Pseudopotential Definition               |                
   |        Beta     l      e      Rc     scheme   norm       |                
   |          1      0   -0.388   2.199     qc      0         |                
   |          2      0    0.250   2.199     qc      0         |                
   |          3      1   -0.136   2.199     qc      0         |                
   |          4      1    0.250   2.199     qc      0         |                
   |          5      2   -0.950   2.199     qc      0         |                
   |          6      2    0.250   2.199     qc      0         |                
   |         loc     3    0.000   2.199     pn      0         |                
   |                                                          |                
   | Augmentation charge Rinner = 1.537                       |                
   | Partial core correction Rc = 1.537                       |                
   ------------------------------------------------------------                
   | "3|2.2|7|8|9|50:51:42"                                   |                
   ------------------------------------------------------------                
   |      Author: Chris J. Pickard, Cambridge University      |                
   ============================================================                
 
 Atomic calculation performed for La:
 1s2 2s2 2p6 3s2 3p6 3d10 4s2 4p6 4d10 5s2 5p6 5d1 6s2
 
 Converged in 55 iterations to an ae energy of -230121.495 eV
 
 
 Atomic calculation performed for La:
 1s2 2s2 2p6 3s2 3p6 3d10 4s2 4p6 4d10 5s2 5p6 5d1 6s2
 
 Exceeded max iterations: converged to 0.000001134 eV
 
 Warning: ion_atom_descreen_psp: negative charge density encountered
   ============================================================                
   | Pseudopotential Report - Date of generation 25-03-2022   |                
   ------------------------------------------------------------                
   | Element: La Ionic charge: 11.00 Level of theory: PBE     |                
   | Atomic Solver: ZORA (scalar)                             |                
   |                                                          |                
   |               Reference Electronic Structure             |                
   |         Orbital         Occupation         Energy        |                
   |            5s              2.000           -1.430        |                
   |            5p              6.000           -0.823        |                
   |            6s              2.000           -0.135        |                
   |            5d              1.000           -0.114        |                
   |                                                          |                
   |                 Pseudopotential Definition               |                
   |        Beta     l      e      Rc     scheme   norm       |                
   |          1      0   -1.430   2.298     qc      0         |                
   |          2      0   -0.135   2.298     qc      0         |                
   |          3      0    0.250   2.298     qc      0         |                
   |          4      1   -0.823   2.298     qc      0         |                
   |          5      1    0.250   2.298     qc      0         |                
   |          6      2   -0.114   2.298     qc      0         |                
   |          7      2    0.250   2.298     qc      0         |                
   |         loc     2    0.000   2.298     pn      0         |                
   |                                                          |                
   | Augmentation charge Rinner = 1.606                       |                
   | Partial core correction Rc = 1.606                       |                
   ------------------------------------------------------------                
   | "2|2.3|5|6|7|50U:60:51:52(qc=4.5)"                       |                
   ------------------------------------------------------------                
   |      Author: Chris J. Pickard, Cambridge University      |                
   ============================================================                
 
 Pseudo atomic calculation performed for O 2s2 2p4
 
 Converged in 39 iterations to a total energy of -432.6554 eV
 
 
 Pseudo atomic calculation performed for Zr 4s2 4p6 4d2 5s2
 
 Converged in 38 iterations to a total energy of -1285.4931 eV
 
 
 Pseudo atomic calculation performed for Sn 4d10 5s2 5p2
 
 Converged in 48 iterations to a total energy of -2044.5413 eV
 
 
 Pseudo atomic calculation performed for La 5s2 5p6 5d1 6s2
 
 Converged in 34 iterations to a total energy of -968.0373 eV
 
 Calculation parallelised over 896 processes.
 Data is distributed by G-vector(64-way) and k-point(14-way)

 ************************************ Title ************************************
 nmr testing

 ***************************** General Parameters ******************************
  
 output verbosity                               : normal  (1)
 write checkpoint data to                       : 66.check
 type of calculation                            : Magnetic Resonance
 stress calculation                             : on
 density difference calculation                 : off
 electron localisation func (ELF) calculation   : off
 Hirshfeld analysis                             : off
 unlimited duration calculation
 timing information                             : on
 memory usage estimate                          : on
 write final potential to formatted file        : off
 write final density to formatted file          : off
 write BibTeX reference list                    : off
 write OTFG pseudopotential files               : on
 checkpoint writing                             : off
  
 output         length unit                     : A
 output           mass unit                     : amu
 output           time unit                     : ps
 output         charge unit                     : e
 output           spin unit                     : hbar/2
 output         energy unit                     : eV
 output          force unit                     : eV/A
 output       velocity unit                     : A/ps
 output       pressure unit                     : GPa
 output     inv_length unit                     : 1/A
 output      frequency unit                     : cm-1
 output force constant unit                     : eV/A**2
 output         volume unit                     : A**3
 output   IR intensity unit                     : (D/A)**2/amu
 output         dipole unit                     : D
 output         efield unit                     : eV/A/e
 output        entropy unit                     : J/mol/K
  
 wavefunctions paging                           : none
 random number generator seed                   : randomised (214752583)
 data distribution                              : optimal for this architecture
 optimization strategy                          : maximize speed(+++)

 *********************** Exchange-Correlation Parameters ***********************
  
 using functional                               : Perdew Burke Ernzerhof
 relativistic treatment                         : ZORA
 DFT+D: Semi-empirical dispersion correction    : off

 ************************* Pseudopotential Parameters **************************
  
 pseudopotential representation                 : reciprocal space
 <beta|phi> representation                      : reciprocal space
 spin-orbit coupling                            : off

 **************************** Basis Set Parameters *****************************
  
 plane wave basis set cut-off                   :   816.3416   eV
 size of standard grid                          :     1.7500
 size of   fine   gmax                          :    25.6161   1/A
 finite basis set correction                    : automatic
 number of sample energies                      :          3
           sample  spacing                      :     5.0000   eV

 **************************** Electronic Parameters ****************************
  
 number of  electrons                           :  718.0    
 net charge of system                           :  0.000    
 treating system as non-spin-polarized
 number of bands                                :        431

 ********************* Electronic Minimization Parameters **********************
  
 Method: Treating system as metallic with density mixing treatment of electrons,
         and number of  SD  steps               :          1
         and number of  CG  steps               :          4
  
 total energy / atom convergence tol.           : 0.1000E-08   eV
 eigen-energy convergence tolerance             : 0.2451E-09   eV
 max force / atom convergence tol.              : ignored
 convergence tolerance window                   :          3   cycles
 max. number of SCF cycles                      :         50
 number of fixed-spin iterations                :         10
 smearing scheme                                : Gaussian
 smearing width                                 : 0.2000       eV
 Fermi energy convergence tolerance             : 0.2721E-13   eV
 periodic dipole correction                     : NONE

 ************************** Density Mixing Parameters **************************
  
 density-mixing scheme                          : Broyden
 max. length of mixing history                  :         20
 charge density mixing amplitude                : 0.8000    
 cut-off energy for mixing                      :  816.3       eV

 *********************** Population Analysis Parameters ************************
  
 Population analysis with cutoff                :  3.000       A

 ************************ Magnetic Resonance Parameters ************************
  
 Magnetic Resonance Property                    : Chemical Shielding + EFG
 Position Operator Method                       : crystal
 max. number of MagRes CG steps                 :        250
 convergence tolerance window                   :          2   cycles
 energy convergence tolerance                   : 0.1000E-11   eV
 band convergence tolerance                     : 0.1000E-08   eV

 *******************************************************************************
  
 
                           -------------------------------
                                      Unit Cell
                           -------------------------------
        Real Lattice(A)                      Reciprocal Lattice(1/A)
  10.9038326   0.0017148  -0.0012477        0.5762364  -0.0000905   0.0000667
   0.0017128  10.9039676  -0.0012526       -0.0000906   0.5762293   0.0000669
  -0.0012626  -0.0012659  10.9038221        0.0000659   0.0000662   0.5762370
 
                       Lattice parameters(A)       Cell Angles
                    a =   10.903833          alpha =   90.013235
                    b =   10.903968          beta  =   90.013192
                    c =   10.903822          gamma =   89.981988
 
                       Current cell volume = 1296.410269       A**3
 
                           -------------------------------
                                     Cell Contents
                           -------------------------------
                         Total number of ions in cell =   88
                      Total number of species in cell =    4
                        Max number of any one species =   56
 
            xxxxxxxxxxxxxxxxxxxxxxxxxxxxxxxxxxxxxxxxxxxxxxxxxxxxxxxxxxxx
            x  Element    Atom        Fractional coordinates of atoms  x
            x            Number           u          v          w      x
            x----------------------------------------------------------x
            x  O            1         0.124874   0.124646   0.124914   x 
            x  O            2         0.625084   0.124939   0.625078   x 
            x  O            3         0.124987   0.625182   0.624982   x 
            x  O            4         0.625087   0.625229   0.124931   x 
            x  O            5         0.874638   0.375175   0.375026   x 
            x  O            6         0.874693   0.874830   0.875128   x 
            x  O            7         0.375406   0.375169   0.874929   x 
            x  O            8         0.375231   0.874729   0.374932   x 
            x  O            9         0.421013   0.126386   0.125910   x 
            x  O           10         0.330720   0.125061   0.624353   x 
            x  O           11         0.829509   0.625252   0.625483   x 
            x  O           12         0.920270   0.624376   0.124072   x 
            x  O           13         0.125489   0.419866   0.124901   x 
            x  O           14         0.624043   0.329519   0.125832   x 
            x  O           15         0.625042   0.829632   0.625073   x 
            x  O           16         0.124952   0.919533   0.625011   x 
            x  O           17         0.125521   0.125449   0.419460   x 
            x  O           18         0.125993   0.624094   0.329347   x 
            x  O           19         0.625532   0.625265   0.829968   x 
            x  O           20         0.625177   0.124975   0.920166   x 
            x  O           21         0.875055   0.670352   0.374575   x 
            x  O           22         0.875652   0.579543   0.876073   x 
            x  O           23         0.373546   0.079056   0.873974   x 
            x  O           24         0.374569   0.169430   0.375665   x 
            x  O           25         0.169444   0.374514   0.375103   x 
            x  O           26         0.079306   0.875837   0.376384   x 
            x  O           27         0.579854   0.874985   0.875291   x 
            x  O           28         0.670209   0.375200   0.875530   x 
            x  O           29         0.875655   0.375991   0.079396   x 
            x  O           30         0.374664   0.375179   0.169704   x 
            x  O           31         0.373728   0.876379   0.670849   x 
            x  O           32         0.876200   0.876341   0.579349   x 
            x  O           33         0.670215   0.875265   0.374988   x 
            x  O           34         0.080222   0.374448   0.874967   x 
            x  O           35         0.374942   0.670333   0.875426   x 
            x  O           36         0.875823   0.079068   0.376521   x 
            x  O           37         0.876201   0.373680   0.670643   x 
            x  O           38         0.375083   0.874701   0.079793   x 
            x  O           39         0.125121   0.330693   0.624910   x 
            x  O           40         0.625057   0.919986   0.124850   x 
            x  O           41         0.919419   0.125006   0.625152   x 
            x  O           42         0.329798   0.623857   0.125671   x 
            x  O           43         0.124089   0.624207   0.920563   x 
            x  O           44         0.623918   0.125938   0.329150   x 
            x  O           45         0.420426   0.625233   0.624588   x 
            x  O           46         0.829581   0.125236   0.125001   x 
            x  O           47         0.124950   0.125460   0.830393   x 
            x  O           48         0.624745   0.624873   0.420068   x 
            x  O           49         0.876001   0.170260   0.873768   x 
            x  O           50         0.374393   0.579726   0.374154   x 
            x  O           51         0.170527   0.875814   0.873600   x 
            x  O           52         0.579637   0.374440   0.374274   x 
            x  O           53         0.874618   0.874346   0.169967   x 
            x  O           54         0.373847   0.373798   0.579711   x 
            x  O           55         0.124974   0.829693   0.124896   x 
            x  O           56         0.625231   0.420218   0.624720   x 
            x  Zr           1         0.499514   0.499549   0.499460   x 
            x  Zr           2         0.249662   0.749698   0.000136   x 
            x  Zr           3         0.749766   0.000002   0.250088   x 
            x  Zr           4         0.750151   0.250449  -0.000236   x 
            x  Zr           5         0.000164   0.749650   0.249534   x 
            x  Zr           6         0.499950   0.000036   0.000005   x 
            x  Zr           7         0.750957   0.499527   0.751159   x 
            x  Zr           8         0.750668   0.750772   0.499757   x 
            x  Zr           9         0.499684   0.750845   0.750618   x 
            x  Sn           1         0.000926   0.249115   0.749069   x 
            x  Sn           2         0.248499   0.001531   0.748374   x 
            x  Sn           3         0.249591   0.249606   0.500378   x 
            x  Sn           4         0.250471   0.499337   0.250474   x 
            x  Sn           5         0.000213   0.499772  -0.000000   x 
            x  Sn           6         0.498732   0.251089   0.251178   x 
            x  Sn           7         0.001508   0.001537   0.501467   x 
            x  La           1        -0.000301  -0.000252   0.000110   x 
            x  La           2         0.749668   0.250117   0.499967   x 
            x  La           3         0.250337   0.500325   0.750018   x 
            x  La           4         0.500153   0.749871   0.249949   x 
            x  La           5         0.250207   0.749750   0.499861   x 
            x  La           6         0.749826   0.500218   0.249972   x 
            x  La           7         0.500323   0.250105   0.749997   x 
            x  La           8        -0.000411   0.500418   0.499947   x 
            x  La           9         0.749907   0.749945   0.000052   x 
            x  La          10         0.250050  -0.000483   0.249758   x 
            x  La          11         0.250228   0.249861  -0.000037   x 
            x  La          12         0.749770  -0.000222   0.750088   x 
            x  La          13         0.500427  -0.000418   0.499947   x 
            x  La          14        -0.000294   0.749812   0.750063   x 
            x  La          15        -0.000489   0.249813   0.249738   x 
            x  La          16         0.500182   0.500230  -0.000053   x 
            xxxxxxxxxxxxxxxxxxxxxxxxxxxxxxxxxxxxxxxxxxxxxxxxxxxxxxxxxxxx
 
 
                         No user defined ionic velocities
 
                           -------------------------------
                                   Details of Species
                           -------------------------------
 
                               Mass of species in AMU
                                    O   15.9994000
                                    Zr   91.2240000
                                    Sn  118.7100000
                                    La  138.9055000
 
                          Electric Quadrupole Moment (Barn)
                                    O   -0.0255800 Isotope 17
                                    Zr   -0.1760000 Isotope 91
                                    Sn    1.0000000 No Isotope Defined
                                    La    0.2000000 Isotope139
 
                          Files used for pseudopotentials:
                                    O 2|1.1|15|18|20|20:21(qc=7)
                                    Zr 3|2.1|7|8|9|40U:50:41:42
                                    Sn 3|2.2|7|8|9|50:51:42
                                    La 2|2.3|5|6|7|50U:60:51:52(qc=4.5)
 
                           -------------------------------
                              k-Points For BZ Sampling
                           -------------------------------
                       MP grid size for SCF calculation is  3  3  3
                            with an offset of   0.000  0.000  0.000
                       Number of kpoints used =   14
 
                           -------------------------------
                               Symmetry and Constraints
                           -------------------------------
 
                      Maximum deviation from symmetry =  0.00000         ANG
 
         There are no symmetry operations specified or generated for this cell
                      Number of ionic constraints     = 3
                      Point group of crystal =     1: C1, 1, 1
                      Space group of crystal =     1: P1, P 1
 
 
                         Centre of mass is constrained
             Set iprint > 1 for details of linear ionic constraints
 
                         Number of cell constraints= 0
                         Cell constraints are:  1 2 3 4 5 6
 
                         External pressure/stress (GPa)
                          0.00000   0.00000   0.00000
                                    0.00000   0.00000
                                              0.00000
  
+---------------- MEMORY AND SCRATCH DISK ESTIMATES PER PROCESS --------------+
|                                                     Memory          Disk    |
| Baseline code, static data and system overhead      839.0 MB         0.0 MB |
| BLAS internal memory storage                          0.0 MB         0.0 MB |
| Model and support data                              149.4 MB         0.0 MB |
| Electronic energy minimisation requirements          28.2 MB         0.0 MB |
| Force calculation requirements                        1.5 MB         0.0 MB |
| Stress calculation requirements                       1.8 MB         0.0 MB |
|                                               ----------------------------- |
| Approx. total storage required per process         1016.6 MB         0.0 MB |
|                                                                             |
| Requirements will fluctuate during execution and may exceed these estimates |
+-----------------------------------------------------------------------------+
Calculating finite basis set correction with  3 cut-off energies.
Calculating total energy with cut-off of  806.342eV.
------------------------------------------------------------------------ <-- SCF
SCF loop      Energy           Fermi           Energy gain       Timer   <-- SCF
                               energy          per atom          (sec)   <-- SCF
------------------------------------------------------------------------ <-- SCF
Initial  -5.53262457E+004  0.00000000E+000                        35.18  <-- SCF
      1  -6.37765337E+004  7.51984386E+000   9.60260002E+001      45.95  <-- SCF
      2  -6.63406579E+004  6.80551522E+000   2.91377745E+001      53.38  <-- SCF
      3  -6.64213679E+004  6.55339123E+000   9.17159829E-001      61.72  <-- SCF
      4  -6.64163699E+004  7.68842798E+000  -5.67954853E-002      71.33  <-- SCF
      5  -6.63107709E+004  7.09204604E+000  -1.19998846E+000      80.70  <-- SCF
      6  -6.63122221E+004  6.96495343E+000   1.64908058E-002      92.75  <-- SCF
      7  -6.63119267E+004  7.05460252E+000  -3.35649013E-003     102.65  <-- SCF
      8  -6.63119963E+004  7.05432706E+000   7.89803825E-004     115.91  <-- SCF
      9  -6.63120158E+004  7.05054247E+000   2.21746079E-004     127.14  <-- SCF
     10  -6.63120167E+004  7.04658911E+000   1.11513734E-005     137.77  <-- SCF
     11  -6.63120158E+004  7.04761679E+000  -1.06813887E-005     148.55  <-- SCF
     12  -6.63120160E+004  7.04679719E+000   2.02767940E-006     160.27  <-- SCF
     13  -6.63120160E+004  7.04574354E+000   4.98515763E-008     170.41  <-- SCF
     14  -6.63120159E+004  7.04530273E+000  -5.83366515E-007     180.51  <-- SCF
     15  -6.63120159E+004  7.04468607E+000  -1.06661309E-007     191.21  <-- SCF
     16  -6.63120159E+004  7.04443199E+000   7.48940766E-009     200.45  <-- SCF
     17  -6.63120159E+004  7.04436546E+000  -1.56014679E-009     209.35  <-- SCF
     18  -6.63120159E+004  7.04429391E+000   9.74476541E-010     216.55  <-- SCF
     19  -6.63120159E+004  7.04424761E+000   3.37902905E-010     223.57  <-- SCF
     20  -6.63120159E+004  7.04425269E+000   4.83722843E-011     229.85  <-- SCF
------------------------------------------------------------------------ <-- SCF
 
Final energy, E             =  -66312.01592837     eV
Final free energy (E-TS)    =  -66312.01592837     eV
(energies not corrected for finite basis set)
 
NB est. 0K energy (E-0.5TS)      =  -66312.01592837     eV
 
Calculating total energy with cut-off of  811.342eV.
------------------------------------------------------------------------ <-- SCF
SCF loop      Energy           Fermi           Energy gain       Timer   <-- SCF
                               energy          per atom          (sec)   <-- SCF
------------------------------------------------------------------------ <-- SCF
Initial  -6.63120159E+004  0.00000000E+000                       231.96  <-- SCF
      1  -6.63120184E+004  7.04425318E+000   2.85459233E-005     240.49  <-- SCF
      2  -6.63120184E+004  7.04425318E+000   1.86458282E-010     246.72  <-- SCF
      3  -6.63120184E+004  7.04424651E+000   1.70351999E-008     252.85  <-- SCF
      4  -6.63120184E+004  7.04425335E+000   5.76389516E-010     258.97  <-- SCF
      5  -6.63120184E+004  7.04425051E+000  -5.99028870E-011     265.12  <-- SCF
------------------------------------------------------------------------ <-- SCF
 
Final energy, E             =  -66312.01844197     eV
Final free energy (E-TS)    =  -66312.01844197     eV
(energies not corrected for finite basis set)
 
NB est. 0K energy (E-0.5TS)      =  -66312.01844197     eV
 
Calculating total energy with cut-off of  816.342eV.
------------------------------------------------------------------------ <-- SCF
SCF loop      Energy           Fermi           Energy gain       Timer   <-- SCF
                               energy          per atom          (sec)   <-- SCF
------------------------------------------------------------------------ <-- SCF
Initial  -6.63120184E+004  0.00000000E+000                       267.23  <-- SCF
      1  -6.63120213E+004  7.04424896E+000   3.27201514E-005     275.77  <-- SCF
      2  -6.63120213E+004  7.04424896E+000   1.92786052E-010     281.99  <-- SCF
      3  -6.63120213E+004  7.04424423E+000   1.99267094E-008     288.18  <-- SCF
      4  -6.63120213E+004  7.04424992E+000   6.42198321E-010     294.42  <-- SCF
      5  -6.63120213E+004  7.04424672E+000  -1.30773908E-011     300.64  <-- SCF
------------------------------------------------------------------------ <-- SCF
 
Final energy, E             =  -66312.02132317     eV
Final free energy (E-TS)    =  -66312.02132317     eV
(energies not corrected for finite basis set)
 
NB est. 0K energy (E-0.5TS)      =  -66312.02132317     eV
 
 For future reference: finite basis dEtot/dlog(Ecut) =      -0.437498eV
 Total energy corrected for finite basis set =  -66312.021335 eV
 
  =====================================================================
  +       Calculation of Nuclear Magnetic Resonance Parameters        +
  + ================================================================= +
 
  Starting Calculation of Electric Field Gradient Tensors         |<-- EFG
  +---------------- MEMORY AND SCRATCH DISK ESTIMATES PER PROCESS --------------+
  |                                                     Memory          Disk    |
  | Model and support data                              151.1 MB         0.0 MB |
  | NMR EFG calculation requirements                     27.3 MB         0.0 MB |
  |                                               ----------------------------- |
  | Approx. total storage required per process          178.4 MB         0.0 MB |
  |                                                                             |
  | Requirements will fluctuate during execution and may exceed these estimates |
  +-----------------------------------------------------------------------------+
  Total Time for EFG Tensors                      31.04 sec       |<-- EFG
 
  Starting Calculation of Chemical Shielding Tensors              |<-- NMR
  +---------------- MEMORY AND SCRATCH DISK ESTIMATES PER PROCESS --------------+
  |                                                     Memory          Disk    |
  | Model and support data                              151.1 MB         0.0 MB |
  | NMR chemical shift calculation requirements          90.3 MB         0.0 MB |
  |                                               ----------------------------- |
  | Approx. total storage required per process          241.4 MB         0.0 MB |
  |                                                                             |
  | Requirements will fluctuate during execution and may exceed these estimates |
  +-----------------------------------------------------------------------------+
  Starting k-point:   1 of   1                                    |<-- NMR
  Total Time for step 1 of 6:                    271.79 sec       |<-- NMR
  Total Time for step 2 of 6:                    273.22 sec       |<-- NMR
  Total Time for step 3 of 6:                    274.01 sec       |<-- NMR
  Total Time for step 4 of 6:                    273.03 sec       |<-- NMR
  Total Time for step 5 of 6:                    274.00 sec       |<-- NMR
  Total Time for step 6 of 6:                    273.31 sec       |<-- NMR
  Total Time for Chemical Shielding Tensors     2406.85 sec       |<-- NMR
 
  ========================================================================
  |           Chemical Shielding and Electric Field Gradient Tensors     |
  |----------------------------------------------------------------------|
  |     Nucleus                Shielding tensor             EFG Tensor   |
  |  Species       Ion    Iso(ppm)   Aniso(ppm)  Asym    Cq(MHz)    Eta  |
  |    O           1     -317.65     -10.30      0.36  -3.434E-02   0.51 |
  |    O           2     -316.39      -7.80      0.66  -3.919E-02   0.75 |
  |    O           3     -316.35       6.18      0.46  -6.395E-02   0.16 |
  |    O           4     -317.41      -7.75      0.56   5.585E-02   0.69 |
  |    O           5     -318.26      -5.01      0.77  -7.701E-02   0.41 |
  |    O           6     -319.04       7.69      0.79   6.725E-02   0.76 |
  |    O           7     -318.84      -6.26      0.81   4.865E-02   0.82 |
  |    O           8     -318.34       6.22      0.99  -6.119E-02   0.38 |
  |    O           9      -80.97      84.15      0.14  -3.190E+00   0.07 |
  |    O          10      -20.19      41.14      0.84   3.888E+00   0.82 |
  |    O          11     -159.90     145.62      0.76   1.090E+00   0.68 |
  |    O          12      -92.88      86.42      0.15  -3.209E+00   0.13 |
  |    O          13        0.29      66.91      0.95   3.799E+00   0.94 |
  |    O          14      -87.98      82.06      0.28  -3.134E+00   0.10 |
  |    O          15     -161.46     152.62      0.76   1.081E+00   0.75 |
  |    O          16      -18.91      40.86      0.32   3.962E+00   0.78 |
  |    O          17      -18.22      38.20      0.99   3.868E+00   0.86 |
  |    O          18      -85.75      85.20      0.33  -3.182E+00   0.10 |
  |    O          19     -164.21     153.55      0.74   1.001E+00   0.92 |
  |    O          20     -161.74     156.26      0.80   1.065E+00   0.77 |
  |    O          21     -162.62     153.65      0.80   1.096E+00   0.76 |
  |    O          22      -92.95      93.83      0.19  -3.191E+00   0.12 |
  |    O          23      -83.40      84.41      0.13  -3.152E+00   0.08 |
  |    O          24      -12.90      58.71      0.67   3.831E+00   0.86 |
  |    O          25      -11.67      56.90      0.87   3.799E+00   0.92 |
  |    O          26      -84.92      79.90      0.21  -3.175E+00   0.08 |
  |    O          27     -165.76     164.65      0.77   1.044E+00   0.95 |
  |    O          28     -164.39     163.42      0.82   1.104E+00   0.82 |
  |    O          29      -84.84      86.80      0.38  -3.206E+00   0.09 |
  |    O          30      -10.65      59.38      0.48   3.909E+00   0.84 |
  |    O          31      -85.78      79.90      0.02  -3.182E+00   0.09 |
  |    O          32      -88.48      82.24      0.05  -3.149E+00   0.09 |
  |    O          33     -164.16     160.49      0.80   1.082E+00   0.84 |
  |    O          34       -2.53      66.11      0.96   3.783E+00   0.94 |
  |    O          35     -162.89     155.19      0.79   1.099E+00   0.76 |
  |    O          36      -83.14      83.19      0.23  -3.160E+00   0.07 |
  |    O          37      -86.85      80.08      0.09  -3.224E+00   0.09 |
  |    O          38     -161.73     156.15      0.80   1.064E+00   0.78 |
  |    O          39      -19.14     -41.18      0.78   3.859E+00   0.87 |
  |    O          40     -165.88     161.52      0.77  -1.003E+00   1.00 |
  |    O          41      -21.52      42.42      0.33   3.939E+00   0.79 |
  |    O          42      -91.25      75.72      0.24  -3.192E+00   0.12 |
  |    O          43      -84.57      86.62      0.32  -3.203E+00   0.09 |
  |    O          44      -84.37      84.69      0.28  -3.142E+00   0.10 |
  |    O          45     -160.77     146.83      0.76   1.081E+00   0.67 |
  |    O          46     -159.50     150.39      0.81   1.112E+00   0.67 |
  |    O          47      -18.36      38.95      0.75   3.926E+00   0.83 |
  |    O          48     -164.63     146.66      0.75   1.010E+00   0.82 |
  |    O          49      -90.39      75.88      0.12  -3.203E+00   0.10 |
  |    O          50      -92.92      86.81      0.13  -3.220E+00   0.13 |
  |    O          51      -87.08      82.48      0.17  -3.142E+00   0.08 |
  |    O          52      -90.43      87.36      0.11  -3.276E+00   0.12 |
  |    O          53     -164.05     158.79      0.76   1.025E+00   0.89 |
  |    O          54      -89.89      76.75      0.09  -3.233E+00   0.10 |
  |    O          55     -161.18     158.98      0.84   1.121E+00   0.73 |
  |    O          56     -162.09     145.92      0.75   1.056E+00   0.68 |
  |    Zr          1     1610.14    -113.98      0.06  -3.774E+01   0.05 |
  |    Zr          2     1628.30    -126.09      0.12  -3.730E+01   0.21 |
  |    Zr          3     1633.76    -126.66      0.15  -3.814E+01   0.09 |
  |    Zr          4     1628.45    -125.97      0.12  -3.731E+01   0.21 |
  |    Zr          5     1628.15    -125.86      0.14  -3.739E+01   0.16 |
  |    Zr          6     1635.44    -127.11      0.16  -3.800E+01   0.08 |
  |    Zr          7     1623.48    -119.72      0.11  -3.851E+01   0.08 |
  |    Zr          8     1629.73    -121.43      0.13  -3.920E+01   0.10 |
  |    Zr          9     1629.30    -121.84      0.13  -3.930E+01   0.11 |
  |    Sn          1     3246.18     -62.03      0.18   1.226E+02   0.16 |
  |    Sn          2     3239.45     -48.18      0.13   1.242E+02   0.08 |
  |    Sn          3     3244.62     -62.77      0.16   1.202E+02   0.19 |
  |    Sn          4     3255.98     -60.12      0.41   1.256E+02   0.10 |
  |    Sn          5     3259.25     -57.29      0.24   1.281E+02   0.13 |
  |    Sn          6     3249.88     -49.27      0.22   1.280E+02   0.22 |
  |    Sn          7     3239.98     -47.34      0.25   1.242E+02   0.09 |
  |    La          1     4706.11     750.55      0.04  -8.360E+01   0.10 |
  |    La          2     4653.78     655.16      0.10  -8.033E+01   0.18 |
  |    La          3     4659.43     621.67      0.01  -8.059E+01   0.02 |
  |    La          4     4749.24     871.23      0.05  -8.520E+01   0.08 |
  |    La          5     4653.91     655.49      0.10  -8.034E+01   0.18 |
  |    La          6     4702.95     764.42      0.05  -8.304E+01   0.10 |
  |    La          7     4705.58     750.20      0.04  -8.371E+01   0.10 |
  |    La          8     4661.33     625.90      0.02  -8.068E+01   0.02 |
  |    La          9     4747.81     881.00      0.05  -8.423E+01   0.07 |
  |    La         10     4658.90     625.05      0.00  -8.096E+01   0.04 |
  |    La         11     4554.05     385.91      0.06  -7.405E+01   0.13 |
  |    La         12     4702.60     758.77      0.05  -8.267E+01   0.11 |
  |    La         13     4655.75     636.35      0.01  -7.986E+01   0.04 |
  |    La         14     4656.87     662.79      0.10  -8.056E+01   0.17 |
  |    La         15     4612.39     504.84      0.07  -7.787E+01   0.08 |
  |    La         16     4702.83     758.91      0.04  -8.254E+01   0.09 |
  ========================================================================
 
 *********************** Forces ***********************
 *                                                    *
 *            Cartesian components (eV/A)             *
 * -------------------------------------------------- *
 *                   x            y            z      *
 *                                                    *
 * O         1      0.00271     -0.00377     -0.00111 *
 * O         2      0.00070     -0.01104     -0.00374 *
 * O         3     -0.00529      0.00160      0.00245 *
 * O         4      0.00015     -0.00185      0.00052 *
 * O         5     -0.00909     -0.00034     -0.00704 *
 * O         6     -0.00608     -0.00763     -0.00946 *
 * O         7      0.00361     -0.00179     -0.00127 *
 * O         8      0.00469     -0.00751     -0.00111 *
 * O         9     -0.00872     -0.00418     -0.01544 *
 * O        10      0.00311     -0.00270     -0.00957 *
 * O        11      0.01880      0.01289      0.01014 *
 * O        12      0.01273     -0.00092      0.00886 *
 * O        13      0.00613     -0.04055     -0.00359 *
 * O        14      0.00574      0.00621     -0.00590 *
 * O        15      0.00486      0.01911      0.00018 *
 * O        16     -0.00462     -0.00055     -0.00299 *
 * O        17     -0.00169      0.00204     -0.01465 *
 * O        18     -0.01556      0.00456     -0.00174 *
 * O        19      0.01180      0.01292      0.00109 *
 * O        20     -0.00304     -0.00103     -0.01669 *
 * O        21      0.00341     -0.01019     -0.00187 *
 * O        22      0.00941     -0.01236     -0.00063 *
 * O        23      0.00562      0.00315      0.01997 *
 * O        24     -0.00557     -0.01849     -0.00431 *
 * O        25     -0.02743     -0.00702     -0.01215 *
 * O        26      0.00569     -0.01660     -0.00697 *
 * O        27      0.00340      0.00894      0.00263 *
 * O        28     -0.00640      0.01040      0.00986 *
 * O        29     -0.00298     -0.00859      0.00170 *
 * O        30     -0.01281     -0.00836     -0.01121 *
 * O        31      0.00996     -0.00306     -0.00427 *
 * O        32     -0.00144     -0.00129      0.00577 *
 * O        33     -0.01079      0.01088      0.00821 *
 * O        34      0.03479     -0.00449      0.00748 *
 * O        35     -0.00304     -0.00867      0.00165 *
 * O        36     -0.01805      0.00183     -0.00393 *
 * O        37     -0.00130      0.01394      0.00258 *
 * O        38     -0.00032      0.00184      0.00939 *
 * O        39     -0.00168      0.01230     -0.00102 *
 * O        40     -0.00325     -0.00050      0.00386 *
 * O        41      0.00159      0.00134      0.00119 *
 * O        42     -0.00780     -0.00545     -0.01697 *
 * O        43      0.00672      0.00174     -0.00884 *
 * O        44      0.00566     -0.01152      0.00529 *
 * O        45     -0.01229      0.01555     -0.00274 *
 * O        46      0.01422      0.00613      0.00975 *
 * O        47      0.00169      0.00674      0.00131 *
 * O        48      0.00582      0.00647     -0.00732 *
 * O        49     -0.00689      0.00024      0.01000 *
 * O        50      0.00826     -0.01455      0.00758 *
 * O        51     -0.01381     -0.01911     -0.00075 *
 * O        52     -0.01101      0.01318      0.01136 *
 * O        53     -0.01045     -0.00940     -0.00058 *
 * O        54      0.01214      0.01603     -0.00121 *
 * O        55     -0.00721      0.01209      0.00116 *
 * O        56      0.01254     -0.01521     -0.00112 *
 * Zr        1      0.00860      0.01259      0.00770 *
 * Zr        2     -0.00555     -0.00121      0.00725 *
 * Zr        3     -0.00182     -0.00097     -0.00982 *
 * Zr        4     -0.00606     -0.00079      0.00108 *
 * Zr        5     -0.00543      0.00081     -0.01821 *
 * Zr        6      0.00375     -0.00051      0.00850 *
 * Zr        7      0.00867      0.00818      0.02523 *
 * Zr        8      0.01820      0.01087     -0.00072 *
 * Zr        9      0.00350      0.01191      0.01845 *
 * Sn        1      0.00662     -0.00979     -0.00876 *
 * Sn        2     -0.01165      0.01251     -0.00792 *
 * Sn        3     -0.00393     -0.00039      0.00509 *
 * Sn        4      0.00279      0.00021      0.00399 *
 * Sn        5      0.00469     -0.00109      0.00888 *
 * Sn        6     -0.00550      0.00507      0.00317 *
 * Sn        7      0.01434      0.01776      0.00703 *
 * La        1      0.00626      0.01267      0.01325 *
 * La        2     -0.00044      0.01023     -0.00017 *
 * La        3      0.00363     -0.00221     -0.01034 *
 * La        4     -0.01902      0.00057      0.00710 *
 * La        5     -0.00228     -0.01581      0.00320 *
 * La        6      0.00665     -0.01366      0.01855 *
 * La        7     -0.00310      0.00503     -0.00403 *
 * La        8      0.00148     -0.00582     -0.00210 *
 * La        9      0.00592      0.00828      0.00090 *
 * La       10     -0.00953      0.00100     -0.00939 *
 * La       11     -0.00525     -0.00652     -0.00135 *
 * La       12     -0.00178      0.01936      0.00240 *
 * La       13     -0.00805      0.00378     -0.00175 *
 * La       14      0.01354     -0.00747     -0.00952 *
 * La       15     -0.00007     -0.00760     -0.00356 *
 * La       16     -0.01651     -0.01037     -0.01795 *
 *                                                    *
 ******************************************************
 
 ***************** Stress Tensor *****************
 *                                               *
 *          Cartesian components (GPa)           *
 * --------------------------------------------- *
 *             x             y             z     *
 *                                               *
 *  x      0.022083     -0.018605      0.003676  *
 *  y     -0.018605      0.023709     -0.000186  *
 *  z      0.003676     -0.000186      0.039368  *
 *                                               *
 *  Pressure:   -0.0284                          *
 *                                               *
 *************************************************
 
 Pseudo atomic calculation performed for O 2s2 2p4
 
 Converged in 39 iterations to a total energy of -432.6554 eV
 
 
 Pseudo atomic calculation performed for Zr 4s2 4p6 4d2 5s2
 
 Converged in 38 iterations to a total energy of -1285.4931 eV
 
 
 Pseudo atomic calculation performed for Sn 4d10 5s2 5p2
 
 Converged in 48 iterations to a total energy of -2044.5413 eV
 
 
 Pseudo atomic calculation performed for La 5s2 5p6 5d1 6s2
 
 Converged in 34 iterations to a total energy of -968.0373 eV
 
Charge spilling parameter for spin component 1 = 0.24%
 
     Atomic Populations (Mulliken)
     -----------------------------
Species   Ion     s      p      d      f     Total  Charge (e)
==============================================================
  O        1     1.87   5.00   0.00   0.00   6.87    -0.87
  O        2     1.87   5.00   0.00   0.00   6.87    -0.87
  O        3     1.87   5.00   0.00   0.00   6.87    -0.87
  O        4     1.87   5.00   0.00   0.00   6.87    -0.87
  O        5     1.87   5.00   0.00   0.00   6.87    -0.87
  O        6     1.87   5.00   0.00   0.00   6.87    -0.87
  O        7     1.87   5.00   0.00   0.00   6.87    -0.87
  O        8     1.87   5.00   0.00   0.00   6.87    -0.87
  O        9     1.87   4.99   0.00   0.00   6.86    -0.86
  O       10     1.88   5.02   0.00   0.00   6.91    -0.91
  O       11     1.86   4.95   0.00   0.00   6.80    -0.80
  O       12     1.87   4.99   0.00   0.00   6.85    -0.85
  O       13     1.88   5.02   0.00   0.00   6.91    -0.91
  O       14     1.87   4.98   0.00   0.00   6.85    -0.85
  O       15     1.86   4.95   0.00   0.00   6.80    -0.80
  O       16     1.88   5.03   0.00   0.00   6.91    -0.91
  O       17     1.88   5.02   0.00   0.00   6.91    -0.91
  O       18     1.87   4.99   0.00   0.00   6.86    -0.86
  O       19     1.86   4.94   0.00   0.00   6.80    -0.80
  O       20     1.86   4.95   0.00   0.00   6.80    -0.80
  O       21     1.86   4.95   0.00   0.00   6.80    -0.80
  O       22     1.87   4.99   0.00   0.00   6.85    -0.85
  O       23     1.87   4.99   0.00   0.00   6.86    -0.86
  O       24     1.88   5.02   0.00   0.00   6.91    -0.91
  O       25     1.88   5.02   0.00   0.00   6.91    -0.91
  O       26     1.87   4.99   0.00   0.00   6.86    -0.86
  O       27     1.85   4.94   0.00   0.00   6.80    -0.80
  O       28     1.86   4.95   0.00   0.00   6.80    -0.80
  O       29     1.87   4.99   0.00   0.00   6.86    -0.86
  O       30     1.88   5.02   0.00   0.00   6.91    -0.91
  O       31     1.87   4.99   0.00   0.00   6.86    -0.86
  O       32     1.87   4.99   0.00   0.00   6.85    -0.85
  O       33     1.86   4.95   0.00   0.00   6.80    -0.80
  O       34     1.88   5.02   0.00   0.00   6.91    -0.91
  O       35     1.86   4.95   0.00   0.00   6.80    -0.80
  O       36     1.87   4.99   0.00   0.00   6.86    -0.86
  O       37     1.87   4.99   0.00   0.00   6.86    -0.86
  O       38     1.86   4.95   0.00   0.00   6.80    -0.80
  O       39     1.88   5.02   0.00   0.00   6.91    -0.91
  O       40     1.86   4.94   0.00   0.00   6.80    -0.80
  O       41     1.88   5.03   0.00   0.00   6.91    -0.91
  O       42     1.87   4.99   0.00   0.00   6.86    -0.86
  O       43     1.87   4.99   0.00   0.00   6.86    -0.86
  O       44     1.87   4.99   0.00   0.00   6.85    -0.85
  O       45     1.86   4.95   0.00   0.00   6.80    -0.80
  O       46     1.86   4.95   0.00   0.00   6.80    -0.80
  O       47     1.88   5.03   0.00   0.00   6.91    -0.91
  O       48     1.86   4.94   0.00   0.00   6.80    -0.80
  O       49     1.87   4.99   0.00   0.00   6.86    -0.86
  O       50     1.87   4.99   0.00   0.00   6.86    -0.86
  O       51     1.87   4.99   0.00   0.00   6.85    -0.85
  O       52     1.87   4.99   0.00   0.00   6.86    -0.86
  O       53     1.86   4.94   0.00   0.00   6.80    -0.80
  O       54     1.87   4.99   0.00   0.00   6.86    -0.86
  O       55     1.86   4.95   0.00   0.00   6.80    -0.80
  O       56     1.86   4.95   0.00   0.00   6.80    -0.80
  Zr       1     2.37   6.49   1.92   0.00  10.78     1.22
  Zr       2     2.37   6.48   1.92   0.00  10.78     1.22
  Zr       3     2.37   6.47   1.93   0.00  10.77     1.23
  Zr       4     2.37   6.48   1.92   0.00  10.78     1.22
  Zr       5     2.37   6.48   1.92   0.00  10.78     1.22
  Zr       6     2.37   6.48   1.93   0.00  10.77     1.23
  Zr       7     2.37   6.48   1.92   0.00  10.77     1.23
  Zr       8     2.36   6.46   1.93   0.00  10.75     1.25
  Zr       9     2.37   6.47   1.93   0.00  10.76     1.24
  Sn       1     1.05   1.32  10.00   0.00  12.36     1.64
  Sn       2     1.05   1.31  10.00   0.00  12.36     1.64
  Sn       3     1.05   1.32  10.00   0.00  12.36     1.64
  Sn       4     1.05   1.31  10.00   0.00  12.36     1.64
  Sn       5     1.05   1.31  10.00   0.00  12.36     1.64
  Sn       6     1.05   1.31  10.00   0.00  12.36     1.64
  Sn       7     1.05   1.31  10.00   0.00  12.36     1.64
  La       1     2.06   6.16   1.19   0.00   9.42     1.58
  La       2     2.08   6.17   1.19   0.00   9.44     1.56
  La       3     2.08   6.18   1.19   0.00   9.45     1.55
  La       4     2.02   6.14   1.19   0.00   9.36     1.64
  La       5     2.08   6.17   1.19   0.00   9.45     1.55
  La       6     2.04   6.16   1.19   0.00   9.39     1.61
  La       7     2.06   6.16   1.19   0.00   9.41     1.59
  La       8     2.08   6.18   1.19   0.00   9.45     1.55
  La       9     2.02   6.14   1.20   0.00   9.36     1.64
  La      10     2.08   6.18   1.19   0.00   9.46     1.54
  La      11     2.13   6.21   1.19   0.00   9.53     1.47
  La      12     2.05   6.16   1.19   0.00   9.40     1.60
  La      13     2.07   6.17   1.19   0.00   9.44     1.56
  La      14     2.07   6.17   1.19   0.00   9.43     1.57
  La      15     2.10   6.20   1.19   0.00   9.49     1.51
  La      16     2.05   6.16   1.19   0.00   9.40     1.60
==============================================================
 
            Bond              Population      Length (A)
============================================================
         O 52 -- Sn 6              0.35        2.09481
         O 50 -- Sn 4              0.34        2.10053
         O 54 -- Sn 3              0.35        2.10187
         O 43 -- Sn 5              0.35        2.10189
         O 29 -- Sn 5              0.35        2.10191
         O 16 -- Sn 2              0.34        2.10307
         O 37 -- Sn 1              0.35        2.10345
         O 16 -- Sn 7              0.34        2.10355
         O 22 -- Sn 5              0.34        2.10385
         O 18 -- Sn 4              0.34        2.10505
         O 41 -- Sn 7              0.34        2.10511
         O 47 -- Sn 1              0.34        2.10522
         O 9  -- Sn 6              0.35        2.10525
         O 12 -- Sn 5              0.34        2.10595
         O 47 -- Sn 2              0.34        2.10702
         O 31 -- Sn 2              0.34        2.10718
         O 30 -- Sn 4              0.34        2.10739
         O 17 -- Sn 3              0.35        2.10748
         O 27 -- Zr 9              0.43        2.10803
         O 28 -- Zr 4              0.41        2.10826
         O 42 -- Sn 4              0.34        2.10848
         O 49 -- Sn 1              0.35        2.10848
         O 41 -- Sn 1              0.33        2.10861
         O 44 -- Sn 6              0.34        2.10882
         O 36 -- Sn 7              0.34        2.10900
         O 23 -- Sn 2              0.34        2.10918
         O 10 -- Sn 2              0.34        2.10926
         O 30 -- Sn 6              0.34        2.10927
         O 10 -- Sn 3              0.33        2.11038
         O 32 -- Sn 7              0.34        2.11041
         O 28 -- Zr 7              0.41        2.11051
         O 17 -- Sn 7              0.34        2.11090
         O 26 -- Sn 7              0.34        2.11124
         O 33 -- Zr 3              0.42        2.11169
         O 55 -- Zr 2              0.41        2.11174
         O 39 -- Sn 1              0.34        2.11189
         O 33 -- Zr 8              0.42        2.11250
         O 55 -- Zr 5              0.41        2.11256
         O 35 -- Zr 2              0.42        2.11273
         O 22 -- Zr 7              0.45        2.11291
         O 27 -- Zr 6              0.43        2.11343
         O 39 -- Sn 3              0.33        2.11355
         O 14 -- Sn 6              0.34        2.11388
         O 51 -- Sn 2              0.34        2.11389
         O 21 -- Zr 5              0.42        2.11416
         O 24 -- Sn 3              0.33        2.11427
         O 24 -- Sn 6              0.33        2.11432
         O 21 -- Zr 8              0.42        2.11452
         O 53 -- Zr 5              0.43        2.11524
         O 40 -- Zr 3              0.43        2.11529
         O 40 -- Zr 6              0.43        2.11538
         O 35 -- Zr 9              0.42        2.11540
         O 46 -- Zr 4              0.42        2.11626
         O 13 -- Sn 5              0.33        2.11632
         O 20 -- Zr 6              0.42        2.11673
         O 38 -- Zr 6              0.42        2.11675
         O 25 -- Sn 4              0.34        2.11706
         O 20 -- Zr 4              0.43        2.11711
         O 13 -- Sn 4              0.34        2.11712
         O 45 -- Zr 1              0.43        2.11713
         O 15 -- Zr 8              0.43        2.11718
         O 15 -- Zr 9              0.43        2.11719
         O 38 -- Zr 2              0.43        2.11720
         O 48 -- Zr 1              0.44        2.11746
         O 25 -- Sn 3              0.33        2.11759
         O 46 -- Zr 3              0.42        2.11768
         O 34 -- Sn 5              0.33        2.11805
         O 52 -- Zr 1              0.44        2.11812
         O 19 -- Zr 7              0.44        2.11833
         O 11 -- Zr 8              0.43        2.11925
         O 50 -- Zr 1              0.44        2.11929
         O 56 -- Zr 1              0.44        2.11937
         O 53 -- Zr 3              0.43        2.11958
         O 11 -- Zr 7              0.42        2.11967
         O 12 -- Zr 5              0.45        2.12028
         O 34 -- Sn 1              0.33        2.12110
         O 43 -- Zr 2              0.44        2.12133
         O 29 -- Zr 4              0.44        2.12147
         O 32 -- Zr 8              0.45        2.12168
         O 19 -- Zr 9              0.44        2.12261
         O 45 -- Zr 9              0.43        2.12382
         O 44 -- Zr 3              0.45        2.12384
         O 18 -- Zr 5              0.44        2.12437
         O 31 -- Zr 9              0.45        2.12491
         O 37 -- Zr 7              0.45        2.12546
         O 42 -- Zr 2              0.45        2.12593
         O 9  -- Zr 6              0.45        2.12662
         O 14 -- Zr 4              0.45        2.12681
         O 48 -- Zr 8              0.43        2.12718
         O 54 -- Zr 1              0.44        2.12738
         O 56 -- Zr 7              0.43        2.12773
         O 23 -- Zr 6              0.45        2.12826
         O 36 -- Zr 3              0.45        2.12894
         O 49 -- Zr 4              0.45        2.12946
         O 51 -- Zr 2              0.45        2.13046
         O 26 -- Zr 5              0.45        2.13315
         O 4  -- La 9              0.18        2.35769
         O 4  -- La 4              0.19        2.35795
         O 6  -- La 9              0.17        2.35883
         O 8  -- La 4              0.17        2.35902
         O 4  -- La 6              0.19        2.35919
         O 2  -- La 7              0.19        2.35954
         O 2  -- La 12             0.17        2.35962
         O 7  -- La 16             0.16        2.35973
         O 1  -- La 1              0.17        2.35987
         O 4  -- La 16             0.19        2.35994
         O 5  -- La 6              0.16        2.35994
         O 6  -- La 12             0.18        2.35995
         O 7  -- La 7              0.18        2.35996
         O 6  -- La 1              0.19        2.36004
         O 3  -- La 14             0.16        2.36047
         O 2  -- La 2              0.18        2.36057
         O 3  -- La 5              0.17        2.36080
         O 8  -- La 5              0.18        2.36095
         O 8  -- La 13             0.17        2.36104
         O 6  -- La 14             0.18        2.36112
         O 5  -- La 2              0.17        2.36118
         O 5  -- La 8              0.18        2.36136
         O 7  -- La 3              0.18        2.36137
         O 8  -- La 10             0.19        2.36141
         O 1  -- La 10             0.16        2.36146
         O 2  -- La 13             0.17        2.36156
         O 3  -- La 8              0.17        2.36188
         O 3  -- La 3              0.18        2.36205
         O 1  -- La 15             0.17        2.36274
         O 5  -- La 15             0.18        2.36381
         O 7  -- La 11             0.17        2.36464
         O 1  -- La 11             0.16        2.36465
         O 33 -- La 13             0.13        2.66836
         O 53 -- La 9              0.11        2.66844
         O 47 -- La 11             0.23        2.66899
         O 19 -- La 9              0.12        2.66940
         O 46 -- La 15             0.14        2.66980
         O 56 -- La 2              0.14        2.67014
         O 30 -- La 11             0.24        2.67069
         O 11 -- La 14             0.13        2.67087
         O 28 -- La 16             0.12        2.67112
         O 10 -- La 13             0.23        2.67115
         O 45 -- La 5              0.13        2.67133
         O 34 -- La 11             0.25        2.67160
         O 13 -- La 11             0.24        2.67212
         O 15 -- La 13             0.13        2.67218
         O 40 -- La 9              0.11        2.67223
         O 55 -- La 10             0.13        2.67248
         O 48 -- La 4              0.13        2.67264
         O 38 -- La 10             0.14        2.67291
         O 21 -- La 8              0.14        2.67298
         O 41 -- La 12             0.23        2.67316
         O 27 -- La 9              0.11        2.67317
         O 39 -- La 3              0.24        2.67318
         O 48 -- La 6              0.13        2.67327
         O 42 -- La 16             0.18        2.67334
         O 20 -- La 12             0.12        2.67343
         O 35 -- La 16             0.12        2.67345
         O 50 -- La 5              0.18        2.67350
         O 41 -- La 2              0.23        2.67364
         O 24 -- La 13             0.23        2.67365
         O 15 -- La 12             0.13        2.67384
         O 25 -- La 15             0.25        2.67401
         O 17 -- La 15             0.23        2.67402
         O 52 -- La 2              0.17        2.67422
         O 21 -- La 6              0.12        2.67424
         O 27 -- La 12             0.13        2.67425
         O 35 -- La 3              0.14        2.67429
         O 17 -- La 10             0.24        2.67434
         O 12 -- La 9              0.16        2.67436
         O 16 -- La 14             0.22        2.67446
         O 16 -- La 5              0.22        2.67449
         O 38 -- La 4              0.12        2.67463
         O 39 -- La 8              0.24        2.67468
         O 55 -- La 1              0.13        2.67475
         O 10 -- La 7              0.24        2.67498
         O 20 -- La 7              0.14        2.67519
         O 22 -- La 9              0.16        2.67543
         O 40 -- La 4              0.13        2.67580
         O 50 -- La 4              0.17        2.67583
         O 24 -- La 10             0.24        2.67588
         O 23 -- La 11             0.18        2.67621
         O 30 -- La 16             0.23        2.67621
         O 53 -- La 1              0.14        2.67649
         O 54 -- La 3              0.18        2.67664
         O 11 -- La 8              0.14        2.67665
         O 9  -- La 11             0.18        2.67669
         O 28 -- La 7              0.13        2.67678
         O 56 -- La 7              0.14        2.67680
         O 52 -- La 6              0.17        2.67680
         O 29 -- La 15             0.19        2.67684
         O 19 -- La 16             0.13        2.67687
         O 46 -- La 1              0.13        2.67700
         O 33 -- La 4              0.11        2.67703
         O 25 -- La 8              0.24        2.67707
         O 54 -- La 7              0.18        2.67719
         O 18 -- La 5              0.18        2.67719
         O 22 -- La 14             0.18        2.67734
         O 49 -- La 12             0.17        2.67737
         O 45 -- La 3              0.14        2.67747
         O 43 -- La 14             0.17        2.67774
         O 51 -- La 14             0.18        2.67787
         O 14 -- La 16             0.18        2.67802
         O 47 -- La 1              0.23        2.67811
         O 49 -- La 1              0.19        2.67818
         O 26 -- La 5              0.19        2.67834
         O 42 -- La 4              0.17        2.67849
         O 12 -- La 6              0.18        2.67862
         O 29 -- La 6              0.17        2.67871
         O 43 -- La 3              0.19        2.67892
         O 32 -- La 12             0.18        2.67897
         O 14 -- La 6              0.18        2.67905
         O 36 -- La 2              0.19        2.67970
         O 32 -- La 14             0.18        2.67972
         O 37 -- La 2              0.18        2.67975
         O 44 -- La 2              0.18        2.67983
         O 13 -- La 15             0.25        2.67986
         O 18 -- La 8              0.19        2.67994
         O 44 -- La 13             0.18        2.68016
         O 34 -- La 3              0.25        2.68037
         O 37 -- La 8              0.19        2.68097
         O 31 -- La 13             0.18        2.68130
         O 26 -- La 10             0.19        2.68233
         O 31 -- La 5              0.18        2.68243
         O 51 -- La 1              0.19        2.68279
         O 36 -- La 15             0.19        2.68327
         O 9  -- La 10             0.19        2.68628
         O 23 -- La 7              0.19        2.68711
         O 12 -- O 22             -0.06        2.79052
         O 18 -- O 50             -0.06        2.79419
         O 42 -- O 50             -0.06        2.79442
         O 12 -- O 29             -0.06        2.79454
         O 22 -- O 43             -0.06        2.79479
         O 14 -- O 52             -0.06        2.79512
         O 10 -- O 54             -0.06        2.79566
         O 44 -- O 52             -0.06        2.79574
         O 41 -- O 49             -0.06        2.79575
         O 10 -- O 24             -0.05        2.79590
         O 37 -- O 41             -0.06        2.79629
         O 39 -- O 54             -0.06        2.79655
         O 16 -- O 51             -0.06        2.79665
         O 30 -- O 42             -0.06        2.79681
         O 16 -- O 26             -0.06        2.79698
         O 32 -- O 41             -0.06        2.79704
         O 36 -- O 41             -0.06        2.79741
         O 16 -- O 32             -0.06        2.79761
         O 23 -- O 47             -0.06        2.79788
         O 16 -- O 31             -0.06        2.79789
         O 10 -- O 31             -0.06        2.79814
         O 47 -- O 49             -0.06        2.79830
         O 17 -- O 24             -0.05        2.79892
         O 37 -- O 39             -0.06        2.79909
         O 17 -- O 25             -0.05        2.80006
         O 9  -- O 30             -0.06        2.80028
         O 34 -- O 47             -0.05        2.80067
         O 13 -- O 30             -0.05        2.80296
         O 14 -- O 30             -0.06        2.80542
         O 24 -- O 44             -0.06        2.80607
         O 10 -- O 23             -0.06        2.80677
         O 47 -- O 51             -0.06        2.80688
         O 18 -- O 25             -0.06        2.80699
         O 25 -- O 39             -0.05        2.80760
         O 17 -- O 26             -0.06        2.80762
         O 27 -- O 40             -0.04        2.80843
         O 17 -- O 36             -0.05        2.80857
         O 34 -- O 43             -0.05        2.80941
         O 9  -- O 24             -0.06        2.80943
         O 40 -- O 53             -0.04        2.80946
         O 13 -- O 29             -0.05        2.81001
         O 34 -- O 39             -0.05        2.81094
         O 19 -- O 27             -0.03        2.81164
         O 20 -- O 27             -0.03        2.81323
         O 38 -- O 40             -0.03        2.81330
         O 13 -- O 34             -0.05        2.81331
         O 13 -- O 25             -0.05        2.81371
         O 19 -- O 28             -0.03        2.81402
         O 33 -- O 40             -0.03        2.81410
         O 38 -- O 55             -0.03        2.81453
         O 20 -- O 28             -0.03        2.81495
         O 12 -- O 53             -0.03        2.81533
         O 15 -- O 33             -0.03        2.81558
         O 53 -- O 55             -0.03        2.81608
         O 15 -- O 27             -0.03        2.81620
         O 19 -- O 22             -0.03        2.81742
         O 21 -- O 48             -0.03        2.81831
         O 33 -- O 48             -0.03        2.81839
         O 48 -- O 50             -0.03        2.81866
         O 35 -- O 42             -0.03        2.81886
         O 48 -- O 52             -0.03        2.81925
         O 14 -- O 28             -0.03        2.81988
         O 52 -- O 56             -0.03        2.82003
         O 19 -- O 35             -0.03        2.82007
         O 45 -- O 50             -0.03        2.82023
         O 12 -- O 21             -0.03        2.82046
         O 28 -- O 56             -0.03        2.82142
         O 46 -- O 53             -0.03        2.82228
         O 11 -- O 22             -0.03        2.82265
         O 35 -- O 45             -0.03        2.82284
         O 11 -- O 21             -0.03        2.82396
         O 33 -- O 44             -0.03        2.82408
         O 38 -- O 42             -0.03        2.82435
         O 29 -- O 46             -0.03        2.82440
         O 35 -- O 43             -0.03        2.82462
         O 20 -- O 49             -0.03        2.82511
         O 18 -- O 21             -0.03        2.82559
         O 37 -- O 56             -0.03        2.82762
         O 46 -- O 49             -0.03        2.82895
         O 51 -- O 55             -0.03        2.83004
         O 15 -- O 32             -0.03        2.83010
         O 11 -- O 32             -0.03        2.83016
         O 54 -- O 56             -0.03        2.83029
         O 31 -- O 45             -0.03        2.83048
         O 45 -- O 54             -0.03        2.83093
         O 15 -- O 31             -0.03        2.83156
         O 26 -- O 55             -0.03        2.83205
         O 11 -- O 37             -0.03        2.83303
         O 36 -- O 46             -0.03        2.83353
         O 20 -- O 23             -0.03        2.83418
         O 9  -- O 38             -0.03        2.83467
         O 14 -- O 29             -0.03        2.83579
         O 43 -- O 51             -0.03        2.83674
         O 18 -- O 26             -0.03        2.83827
         O 36 -- O 44             -0.03        2.84097
         O 9  -- O 23             -0.03        2.84244
============================================================
 
Initialisation time =     25.38 s
Calculation time    =   2730.00 s
Finalisation time   =      0.12 s
Total time          =   2755.50 s
Peak Memory Use     = 3647048 kB
  
Overall parallel efficiency rating: Good (73%)                                  
  
Data was distributed by:-
G-vector (64-way); efficiency rating: Good (74%)                                
k-point (14-way); efficiency rating: Excellent (97%)                            
