 +-------------------------------------------------+
 |                                                 |
 |      CCC   AA    SSS  TTTTT  EEEEE  PPPP        |
 |     C     A  A  S       T    E      P   P       |
 |     C     AAAA   SS     T    EEE    PPPP        |
 |     C     A  A     S    T    E      P           |
 |      CCC  A  A  SSS     T    EEEEE  P           |
 |                                                 |
 +-------------------------------------------------+
 |                                                 |
 | Welcome to Academic Release CASTEP version 16.1 |          
 | Ab Initio Total Energy Program                  |
 |                                                 |
 | Authors:                                        |
 | M. Segall, M. Probert, C. Pickard, P. Hasnip,   |
 | S. Clark, K. Refson, J. R. Yates, M. Payne      |
 |                                                 |
 | Contributors:                                   |
 | P. Lindan, P. Haynes, J. White, V. Milman,      |
 | N. Govind, M. Gibson, P. Tulip, V. Cocula,      |
 | B. Montanari, D. Quigley, M. Glover,            |
 | L. Bernasconi, A. Perlov, M. Plummer,           |
 | E. McNellis, J. Meyer, J. Gale, D. Jochym       |
 | J. Aarons, B. Walker, R. Gillen, D. Jones       |
 | T. Green, I. J. Bush, C. J. Armstrong,          |
 | E. J. Higgins, E. L. Brown, M. S. McFly         |
 |                                                 |
 | Copyright (c) 2000 - 2015                       |
 |                                                 |
 |     Distributed under the terms of an           |
 |     Agreement between the United Kingdom        |
 |     Car-Parrinello (UKCP) Consortium,           |
 |     Daresbury Laboratory and Accelrys, Inc.     |
 |                                                 |
 | Please cite                                     |
 |                                                 |
 |     "First principles methods using CASTEP"     |
 |                                                 |
 |         Zeitschrift fuer Kristallographie       |
 |           220(5-6) pp. 567-570 (2005)           |
 |                                                 |
 | S. J. Clark, M. D. Segall, C. J. Pickard,       |
 | P. J. Hasnip, M. J. Probert, K. Refson,         |
 | M. C. Payne                                     |
 |                                                 |
 |       in all publications arising from          |
 |              your use of CASTEP                 |
 |                                                 |
 +-------------------------------------------------+
 
 
 Compiled for linux_x86_64_cray-XT on Tue, 22 Mar 2022 15:42:52 +0000
 from code version b833c1ffcd7d+  Fri, 13 Jun 2014 17:24:31 +0100
 Compiler: Cray Fortran 11.0.4; Optimisation: intermediate
 MATHLIBS: LibSci (LAPACK version 3.6.1)
 FFT Lib : default
 Fundamental constants values: CODATA 2010
 
 Run started: Fri, 25 Mar 2022 21:47:58 +0000
 +-------------------------------------------------+
 |                                                 |
 |           N   N    M   M    RRRR                |
 |           NN  N    MM MM    R   R               |
 |           N N N    M M M    RRRR                |
 |           N  NN    M   M    R  R                |
 |           N   N    M   M    R   R               |
 |                                                 |
 +-------------------------------------------------+
 |                                                 |
 | Welcome to Materials Studio CASTEP-NMR          |
 |                                                 |
 | Authors:                                        |
 | J.R. Yates, C.J. Pickard, F. Mauri              |
 |                                                 |
 | Contributors:                                   |
 | T.F.G. Green, S.A. Joyce                        |
 |                                                 |
 | Copyright (c) 2004 - 2015                       |
 |                                                 |
 | Please cite the appropriate publications in all |
 | work arising from your use of CASTEP NMR.       |
 |                                                 |
 | For NMR Shielding Tensors cite:                 |
 |    "All-electron magnetic response with         |
 |    pseudopotentials: NMR chemical shifts",      |
 |    C. J. Pickard, F. Mauri;                     |
 |    Physical Review B63 245101 (2001), and       |
 |                                                 |
 |    "Calculation of NMR Chemical Shifts          |
 |    for extended systems using                   |
 |    Ultrasoft Pseudopotentials",                 |
 |    J. R. Yates, C. J. Pickard and F. Mauri      |
 |    Physical Review B76 024401 (2007)            |
 |                                                 |
 | For Electric Field Gradients cite:              |
 |   "Accurate First Principles Prediction of 17O  |
 |    NMR Parameters in SiO2: Assignment of the    |
 |    Zeolite Ferrierite Spectrum"                 |
 |    M. Profeta, F. Mauri and C. J. Pickard       |
 |    J. Amer. Chem. Soc. 125 541 (2003)           |
 |                                                 |
 | For Spin-Spin (J) Couplings cite:               |
 |   "A first principles theory of NMR J-coupling  |
 |   in solid-state systems"                       |
 |   S.A. Joyce, J.R. Yates, C.J. Pickard, F. Mauri|
 |   J. Chem. Phys. 127 204107 (2007)              |
 |                                                 |
 |   "Relativistic NMR J-coupling with ultrasoft   |
 |   pseudopotentials and the zeroth-order regular |
 |   approximation"                                |
 |   T.F.G. Green and J.R. Yates                   |
 |   J. Chem. Phys. 140 234106 (2014)              |
 |                                                 |
 +-------------------------------------------------+
 
 
 Atomic calculation performed for O: 1s2 2s2 2p4
 
 Converged in 44 iterations to an ae energy of -2040.855 eV
 
 
 Atomic calculation performed for O: 1s2 2s2 2p4
 
 Exceeded max iterations: converged to 0.000000062 eV
 
   ============================================================                
   | Pseudopotential Report - Date of generation 25-03-2022   |                
   ------------------------------------------------------------                
   | Element: O Ionic charge:  6.00 Level of theory: PBE      |                
   | Atomic Solver: ZORA (scalar)                             |                
   |                                                          |                
   |               Reference Electronic Structure             |                
   |         Orbital         Occupation         Energy        |                
   |            2s              2.000           -0.881        |                
   |            2p              4.000           -0.332        |                
   |                                                          |                
   |                 Pseudopotential Definition               |                
   |        Beta     l      e      Rc     scheme   norm       |                
   |          1      0   -0.881   1.100     qc      0         |                
   |          2      0    0.250   1.100     qc      0         |                
   |          3      1   -0.332   1.100     qc      0         |                
   |          4      1    0.250   1.100     qc      0         |                
   |         loc     2    0.000   1.100     pn      0         |                
   |                                                          |                
   | Augmentation charge Rinner = 0.769                       |                
   | Partial core correction Rc = 0.769                       |                
   ------------------------------------------------------------                
   | "2|1.1|15|18|20|20:21(qc=7)"                             |                
   ------------------------------------------------------------                
   |      Author: Chris J. Pickard, Cambridge University      |                
   ============================================================                
 
 Atomic calculation performed for Zr: 1s2 2s2 2p6 3s2 3p6 3d10 4s2 4p6 4d2 5s2
 
 Converged in 52 iterations to an ae energy of -97719.888 eV
 
 
 Atomic calculation performed for Zr: 1s2 2s2 2p6 3s2 3p6 3d10 4s2 4p6 4d2 5s2
 
 Exceeded max iterations: converged to 0.000000936 eV
 
 Warning: ion_atom_descreen_psp: negative charge density encountered
   ============================================================                
   | Pseudopotential Report - Date of generation 25-03-2022   |                
   ------------------------------------------------------------                
   | Element: Zr Ionic charge: 12.00 Level of theory: PBE     |                
   | Atomic Solver: ZORA (scalar)                             |                
   |                                                          |                
   |               Reference Electronic Structure             |                
   |         Orbital         Occupation         Energy        |                
   |            4s              2.000           -2.003        |                
   |            4p              6.000           -1.193        |                
   |            5s              2.000           -0.163        |                
   |            4d              2.000           -0.132        |                
   |                                                          |                
   |                 Pseudopotential Definition               |                
   |        Beta     l      e      Rc     scheme   norm       |                
   |          1      0   -2.003   2.105     qc      0         |                
   |          2      0   -0.163   2.105     qc      0         |                
   |          3      0    0.250   2.105     qc      0         |                
   |          4      1   -1.193   2.105     qc      0         |                
   |          5      1    0.250   2.105     qc      0         |                
   |          6      2   -0.132   2.105     qc      0         |                
   |          7      2    0.250   2.105     qc      0         |                
   |         loc     3    0.000   2.105     pn      0         |                
   |                                                          |                
   | Augmentation charge Rinner = 1.471                       |                
   | Partial core correction Rc = 1.471                       |                
   ------------------------------------------------------------                
   | "3|2.1|7|8|9|40U:50:41:42"                               |                
   ------------------------------------------------------------                
   |      Author: Chris J. Pickard, Cambridge University      |                
   ============================================================                
 
 Atomic calculation performed for Sn:
 1s2 2s2 2p6 3s2 3p6 3d10 4s2 4p6 4d10 5s2 5p2
 
 Converged in 58 iterations to an ae energy of -167539.320 eV
 
 
 Atomic calculation performed for Sn:
 1s2 2s2 2p6 3s2 3p6 3d10 4s2 4p6 4d10 5s2 5p2
 
 Exceeded max iterations: converged to -0.000000491 eV
 
   ============================================================                
   | Pseudopotential Report - Date of generation 25-03-2022   |                
   ------------------------------------------------------------                
   | Element: Sn Ionic charge: 14.00 Level of theory: PBE     |                
   | Atomic Solver: ZORA (scalar)                             |                
   |                                                          |                
   |               Reference Electronic Structure             |                
   |         Orbital         Occupation         Energy        |                
   |            4d             10.000           -0.950        |                
   |            5s              2.000           -0.388        |                
   |            5p              2.000           -0.136        |                
   |                                                          |                
   |                 Pseudopotential Definition               |                
   |        Beta     l      e      Rc     scheme   norm       |                
   |          1      0   -0.388   2.199     qc      0         |                
   |          2      0    0.250   2.199     qc      0         |                
   |          3      1   -0.136   2.199     qc      0         |                
   |          4      1    0.250   2.199     qc      0         |                
   |          5      2   -0.950   2.199     qc      0         |                
   |          6      2    0.250   2.199     qc      0         |                
   |         loc     3    0.000   2.199     pn      0         |                
   |                                                          |                
   | Augmentation charge Rinner = 1.537                       |                
   | Partial core correction Rc = 1.537                       |                
   ------------------------------------------------------------                
   | "3|2.2|7|8|9|50:51:42"                                   |                
   ------------------------------------------------------------                
   |      Author: Chris J. Pickard, Cambridge University      |                
   ============================================================                
 
 Atomic calculation performed for La:
 1s2 2s2 2p6 3s2 3p6 3d10 4s2 4p6 4d10 5s2 5p6 5d1 6s2
 
 Converged in 55 iterations to an ae energy of -230121.495 eV
 
 
 Atomic calculation performed for La:
 1s2 2s2 2p6 3s2 3p6 3d10 4s2 4p6 4d10 5s2 5p6 5d1 6s2
 
 Exceeded max iterations: converged to 0.000001134 eV
 
 Warning: ion_atom_descreen_psp: negative charge density encountered
   ============================================================                
   | Pseudopotential Report - Date of generation 25-03-2022   |                
   ------------------------------------------------------------                
   | Element: La Ionic charge: 11.00 Level of theory: PBE     |                
   | Atomic Solver: ZORA (scalar)                             |                
   |                                                          |                
   |               Reference Electronic Structure             |                
   |         Orbital         Occupation         Energy        |                
   |            5s              2.000           -1.430        |                
   |            5p              6.000           -0.823        |                
   |            6s              2.000           -0.135        |                
   |            5d              1.000           -0.114        |                
   |                                                          |                
   |                 Pseudopotential Definition               |                
   |        Beta     l      e      Rc     scheme   norm       |                
   |          1      0   -1.430   2.298     qc      0         |                
   |          2      0   -0.135   2.298     qc      0         |                
   |          3      0    0.250   2.298     qc      0         |                
   |          4      1   -0.823   2.298     qc      0         |                
   |          5      1    0.250   2.298     qc      0         |                
   |          6      2   -0.114   2.298     qc      0         |                
   |          7      2    0.250   2.298     qc      0         |                
   |         loc     2    0.000   2.298     pn      0         |                
   |                                                          |                
   | Augmentation charge Rinner = 1.606                       |                
   | Partial core correction Rc = 1.606                       |                
   ------------------------------------------------------------                
   | "2|2.3|5|6|7|50U:60:51:52(qc=4.5)"                       |                
   ------------------------------------------------------------                
   |      Author: Chris J. Pickard, Cambridge University      |                
   ============================================================                
 
 Pseudo atomic calculation performed for O 2s2 2p4
 
 Converged in 39 iterations to a total energy of -432.6554 eV
 
 
 Pseudo atomic calculation performed for Zr 4s2 4p6 4d2 5s2
 
 Converged in 38 iterations to a total energy of -1285.4931 eV
 
 
 Pseudo atomic calculation performed for Sn 4d10 5s2 5p2
 
 Converged in 48 iterations to a total energy of -2044.5413 eV
 
 
 Pseudo atomic calculation performed for La 5s2 5p6 5d1 6s2
 
 Converged in 34 iterations to a total energy of -968.0373 eV
 
 Calculation parallelised over 896 processes.
 Data is distributed by G-vector(64-way) and k-point(14-way)

 ************************************ Title ************************************
 nmr testing

 ***************************** General Parameters ******************************
  
 output verbosity                               : normal  (1)
 write checkpoint data to                       : 67.check
 type of calculation                            : Magnetic Resonance
 stress calculation                             : on
 density difference calculation                 : off
 electron localisation func (ELF) calculation   : off
 Hirshfeld analysis                             : off
 unlimited duration calculation
 timing information                             : on
 memory usage estimate                          : on
 write final potential to formatted file        : off
 write final density to formatted file          : off
 write BibTeX reference list                    : off
 write OTFG pseudopotential files               : on
 checkpoint writing                             : off
  
 output         length unit                     : A
 output           mass unit                     : amu
 output           time unit                     : ps
 output         charge unit                     : e
 output           spin unit                     : hbar/2
 output         energy unit                     : eV
 output          force unit                     : eV/A
 output       velocity unit                     : A/ps
 output       pressure unit                     : GPa
 output     inv_length unit                     : 1/A
 output      frequency unit                     : cm-1
 output force constant unit                     : eV/A**2
 output         volume unit                     : A**3
 output   IR intensity unit                     : (D/A)**2/amu
 output         dipole unit                     : D
 output         efield unit                     : eV/A/e
 output        entropy unit                     : J/mol/K
  
 wavefunctions paging                           : none
 random number generator seed                   : randomised (214758868)
 data distribution                              : optimal for this architecture
 optimization strategy                          : maximize speed(+++)

 *********************** Exchange-Correlation Parameters ***********************
  
 using functional                               : Perdew Burke Ernzerhof
 relativistic treatment                         : ZORA
 DFT+D: Semi-empirical dispersion correction    : off

 ************************* Pseudopotential Parameters **************************
  
 pseudopotential representation                 : reciprocal space
 <beta|phi> representation                      : reciprocal space
 spin-orbit coupling                            : off

 **************************** Basis Set Parameters *****************************
  
 plane wave basis set cut-off                   :   816.3416   eV
 size of standard grid                          :     1.7500
 size of   fine   gmax                          :    25.6161   1/A
 finite basis set correction                    : automatic
 number of sample energies                      :          3
           sample  spacing                      :     5.0000   eV

 **************************** Electronic Parameters ****************************
  
 number of  electrons                           :  718.0    
 net charge of system                           :  0.000    
 treating system as non-spin-polarized
 number of bands                                :        431

 ********************* Electronic Minimization Parameters **********************
  
 Method: Treating system as metallic with density mixing treatment of electrons,
         and number of  SD  steps               :          1
         and number of  CG  steps               :          4
  
 total energy / atom convergence tol.           : 0.1000E-08   eV
 eigen-energy convergence tolerance             : 0.2451E-09   eV
 max force / atom convergence tol.              : ignored
 convergence tolerance window                   :          3   cycles
 max. number of SCF cycles                      :         50
 number of fixed-spin iterations                :         10
 smearing scheme                                : Gaussian
 smearing width                                 : 0.2000       eV
 Fermi energy convergence tolerance             : 0.2721E-13   eV
 periodic dipole correction                     : NONE

 ************************** Density Mixing Parameters **************************
  
 density-mixing scheme                          : Broyden
 max. length of mixing history                  :         20
 charge density mixing amplitude                : 0.8000    
 cut-off energy for mixing                      :  816.3       eV

 *********************** Population Analysis Parameters ************************
  
 Population analysis with cutoff                :  3.000       A

 ************************ Magnetic Resonance Parameters ************************
  
 Magnetic Resonance Property                    : Chemical Shielding + EFG
 Position Operator Method                       : crystal
 max. number of MagRes CG steps                 :        250
 convergence tolerance window                   :          2   cycles
 energy convergence tolerance                   : 0.1000E-11   eV
 band convergence tolerance                     : 0.1000E-08   eV

 *******************************************************************************
  
 
                           -------------------------------
                                      Unit Cell
                           -------------------------------
        Real Lattice(A)                      Reciprocal Lattice(1/A)
  10.9033299   0.0017812   0.0049591        0.5762631  -0.0000931  -0.0002637
   0.0017619  10.9044807  -0.0015485       -0.0000942   0.5762022   0.0000820
   0.0049898  -0.0015515  10.9044534       -0.0002621   0.0000819   0.5762037
 
                       Lattice parameters(A)       Cell Angles
                    a =   10.903331          alpha =   90.016284
                    b =   10.904481          beta  =   89.947724
                    c =   10.904455          gamma =   89.981386
 
                       Current cell volume = 1296.486298       A**3
 
                           -------------------------------
                                     Cell Contents
                           -------------------------------
                         Total number of ions in cell =   88
                      Total number of species in cell =    4
                        Max number of any one species =   56
 
            xxxxxxxxxxxxxxxxxxxxxxxxxxxxxxxxxxxxxxxxxxxxxxxxxxxxxxxxxxxx
            x  Element    Atom        Fractional coordinates of atoms  x
            x            Number           u          v          w      x
            x----------------------------------------------------------x
            x  O            1         0.124867   0.124920   0.124916   x 
            x  O            2         0.625057   0.125226   0.625100   x 
            x  O            3         0.124990   0.624787   0.624977   x 
            x  O            4         0.625024   0.624912   0.124928   x 
            x  O            5         0.874924   0.375175   0.374775   x 
            x  O            6         0.874932   0.874892   0.875457   x 
            x  O            7         0.375063   0.375189   0.875180   x 
            x  O            8         0.374946   0.874711   0.374578   x 
            x  O            9         0.420667   0.125730   0.125868   x 
            x  O           10         0.330538   0.124424   0.624512   x 
            x  O           11         0.829402   0.625764   0.624150   x 
            x  O           12         0.920084   0.624880   0.125421   x 
            x  O           13         0.125407   0.420340   0.124870   x 
            x  O           14         0.624205   0.329346   0.125801   x 
            x  O           15         0.625032   0.829939   0.625022   x 
            x  O           16         0.124983   0.919231   0.624984   x 
            x  O           17         0.125365   0.124803   0.419260   x 
            x  O           18         0.124684   0.624745   0.329600   x 
            x  O           19         0.624244   0.625631   0.829755   x 
            x  O           20         0.625232   0.124546   0.920452   x 
            x  O           21         0.873967   0.670577   0.375648   x 
            x  O           22         0.874500   0.579740   0.874964   x 
            x  O           23         0.373546   0.079590   0.874288   x 
            x  O           24         0.374314   0.169939   0.375476   x 
            x  O           25         0.170439   0.373795   0.376223   x 
            x  O           26         0.079385   0.876422   0.376207   x 
            x  O           27         0.579515   0.874242   0.874048   x 
            x  O           28         0.670088   0.375815   0.875661   x 
            x  O           29         0.874420   0.375272   0.079759   x 
            x  O           30         0.375825   0.374427   0.170546   x 
            x  O           31         0.374895   0.875567   0.669772   x 
            x  O           32         0.875006   0.875580   0.580373   x 
            x  O           33         0.670570   0.874552   0.376141   x 
            x  O           34         0.079188   0.373656   0.873706   x 
            x  O           35         0.375982   0.670579   0.874318   x 
            x  O           36         0.875926   0.079608   0.376198   x 
            x  O           37         0.876375   0.374142   0.670648   x 
            x  O           38         0.374978   0.875379   0.079791   x 
            x  O           39         0.125121   0.330413   0.624861   x 
            x  O           40         0.625086   0.919879   0.124874   x 
            x  O           41         0.919563   0.124384   0.624945   x 
            x  O           42         0.330001   0.624414   0.124420   x 
            x  O           43         0.125455   0.624827   0.920495   x 
            x  O           44         0.623905   0.125510   0.328924   x 
            x  O           45         0.420471   0.625736   0.625781   x 
            x  O           46         0.829875   0.124810   0.124931   x 
            x  O           47         0.125120   0.124785   0.830596   x 
            x  O           48         0.625854   0.625178   0.420192   x 
            x  O           49         0.876338   0.170719   0.873780   x 
            x  O           50         0.375355   0.579775   0.375154   x 
            x  O           51         0.170438   0.876363   0.873861   x 
            x  O           52         0.579510   0.375000   0.374081   x 
            x  O           53         0.874814   0.875054   0.170052   x 
            x  O           54         0.373591   0.374280   0.579656   x 
            x  O           55         0.124989   0.829818   0.124943   x 
            x  O           56         0.625100   0.420271   0.624646   x 
            x  Zr           1         0.500019   0.499993   0.499977   x 
            x  Zr           2         0.251051   0.750907  -0.000570   x 
            x  Zr           3         0.750563  -0.000220   0.250182   x 
            x  Zr           4         0.750098   0.250299   0.000045   x 
            x  Zr           5        -0.000627   0.750757   0.250718   x 
            x  Zr           6         0.499753  -0.000137  -0.000157   x 
            x  Zr           7         0.749694   0.500199   0.749764   x 
            x  Zr           8         0.250893   0.499414   0.250865   x 
            x  Zr           9        -0.000173   0.499682  -0.000304   x 
            x  Sn           1         0.001491   0.248489   0.748546   x 
            x  Sn           2         0.249085   0.000832   0.749007   x 
            x  Sn           3         0.249031   0.248965   0.500853   x 
            x  Sn           4         0.750063   0.750182   0.500091   x 
            x  Sn           5         0.499327   0.250488   0.250615   x 
            x  Sn           6         0.499978   0.750192   0.749918   x 
            x  Sn           7         0.000877   0.000841   0.500985   x 
            x  La           1        -0.000064  -0.000147   0.000178   x 
            x  La           2         0.749848   0.250203   0.499828   x 
            x  La           3         0.249977   0.500226   0.750317   x 
            x  La           4         0.500199   0.749844   0.249850   x 
            x  La           5         0.249976   0.749663   0.499698   x 
            x  La           6         0.750015   0.500119   0.249757   x 
            x  La           7         0.500136   0.250149   0.750238   x 
            x  La           8        -0.000169   0.500238   0.499781   x 
            x  La           9         0.749981   0.749713   0.000042   x 
            x  La          10         0.249942  -0.000265   0.249608   x 
            x  La          11         0.249942   0.250266   0.000307   x 
            x  La          12         0.749849   0.000033   0.750464   x 
            x  La          13         0.500286  -0.000122   0.499618   x 
            x  La          14        -0.000157   0.749575   0.750434   x 
            x  La          15        -0.000064   0.250253   0.249616   x 
            x  La          16         0.500032   0.500082   0.000162   x 
            xxxxxxxxxxxxxxxxxxxxxxxxxxxxxxxxxxxxxxxxxxxxxxxxxxxxxxxxxxxx
 
 
                         No user defined ionic velocities
 
                           -------------------------------
                                   Details of Species
                           -------------------------------
 
                               Mass of species in AMU
                                    O   15.9994000
                                    Zr   91.2240000
                                    Sn  118.7100000
                                    La  138.9055000
 
                          Electric Quadrupole Moment (Barn)
                                    O   -0.0255800 Isotope 17
                                    Zr   -0.1760000 Isotope 91
                                    Sn    1.0000000 No Isotope Defined
                                    La    0.2000000 Isotope139
 
                          Files used for pseudopotentials:
                                    O 2|1.1|15|18|20|20:21(qc=7)
                                    Zr 3|2.1|7|8|9|40U:50:41:42
                                    Sn 3|2.2|7|8|9|50:51:42
                                    La 2|2.3|5|6|7|50U:60:51:52(qc=4.5)
 
                           -------------------------------
                              k-Points For BZ Sampling
                           -------------------------------
                       MP grid size for SCF calculation is  3  3  3
                            with an offset of   0.000  0.000  0.000
                       Number of kpoints used =   14
 
                           -------------------------------
                               Symmetry and Constraints
                           -------------------------------
 
                      Maximum deviation from symmetry =  0.00000         ANG
 
         There are no symmetry operations specified or generated for this cell
                      Number of ionic constraints     = 3
                      Point group of crystal =     1: C1, 1, 1
                      Space group of crystal =     1: P1, P 1
 
 
                         Centre of mass is constrained
             Set iprint > 1 for details of linear ionic constraints
 
                         Number of cell constraints= 0
                         Cell constraints are:  1 2 3 4 5 6
 
                         External pressure/stress (GPa)
                          0.00000   0.00000   0.00000
                                    0.00000   0.00000
                                              0.00000
  
+---------------- MEMORY AND SCRATCH DISK ESTIMATES PER PROCESS --------------+
|                                                     Memory          Disk    |
| Baseline code, static data and system overhead      839.0 MB         0.0 MB |
| BLAS internal memory storage                          0.0 MB         0.0 MB |
| Model and support data                              149.3 MB         0.0 MB |
| Electronic energy minimisation requirements          28.2 MB         0.0 MB |
| Force calculation requirements                        1.5 MB         0.0 MB |
| Stress calculation requirements                       1.8 MB         0.0 MB |
|                                               ----------------------------- |
| Approx. total storage required per process         1016.5 MB         0.0 MB |
|                                                                             |
| Requirements will fluctuate during execution and may exceed these estimates |
+-----------------------------------------------------------------------------+
Calculating finite basis set correction with  3 cut-off energies.
Calculating total energy with cut-off of  806.342eV.
------------------------------------------------------------------------ <-- SCF
SCF loop      Energy           Fermi           Energy gain       Timer   <-- SCF
                               energy          per atom          (sec)   <-- SCF
------------------------------------------------------------------------ <-- SCF
Initial  -5.53284393E+004  0.00000000E+000                        34.92  <-- SCF
      1  -6.37669913E+004  7.56594690E+000   9.58926361E+001      45.69  <-- SCF
      2  -6.63396809E+004  6.84585675E+000   2.92351090E+001      53.05  <-- SCF
      3  -6.64213133E+004  6.57026632E+000   9.27641686E-001      61.26  <-- SCF
      4  -6.64163759E+004  7.69160902E+000  -5.61076401E-002      70.87  <-- SCF
      5  -6.63107337E+004  7.10335093E+000  -1.20047923E+000      80.21  <-- SCF
      6  -6.63122118E+004  6.98049381E+000   1.67969322E-002      92.26  <-- SCF
      7  -6.63119124E+004  7.06688139E+000  -3.40232441E-003     102.31  <-- SCF
      8  -6.63119844E+004  7.06778521E+000   8.17782205E-004     115.57  <-- SCF
      9  -6.63120047E+004  7.06509370E+000   2.30358815E-004     126.74  <-- SCF
     10  -6.63120053E+004  7.06173683E+000   7.09843698E-006     137.27  <-- SCF
     11  -6.63120045E+004  7.06276718E+000  -8.72285197E-006     148.09  <-- SCF
     12  -6.63120047E+004  7.06221061E+000   2.52361920E-006     159.57  <-- SCF
     13  -6.63120047E+004  7.06141970E+000   1.20844794E-007     169.49  <-- SCF
     14  -6.63120047E+004  7.06101609E+000  -4.95122391E-007     179.52  <-- SCF
     15  -6.63120047E+004  7.06041732E+000  -1.31290676E-007     190.35  <-- SCF
     16  -6.63120047E+004  7.06017511E+000   1.92265768E-009     199.76  <-- SCF
     17  -6.63120047E+004  7.06010414E+000  -2.08647661E-009     208.62  <-- SCF
     18  -6.63120047E+004  7.06003176E+000   6.75665192E-010     215.97  <-- SCF
     19  -6.63120047E+004  7.05998505E+000   3.94149747E-010     222.81  <-- SCF
     20  -6.63120047E+004  7.05998985E+000   5.69499277E-011     229.08  <-- SCF
------------------------------------------------------------------------ <-- SCF
 
Final energy, E             =  -66312.00468956     eV
Final free energy (E-TS)    =  -66312.00468956     eV
(energies not corrected for finite basis set)
 
NB est. 0K energy (E-0.5TS)      =  -66312.00468956     eV
 
Calculating total energy with cut-off of  811.342eV.
------------------------------------------------------------------------ <-- SCF
SCF loop      Energy           Fermi           Energy gain       Timer   <-- SCF
                               energy          per atom          (sec)   <-- SCF
------------------------------------------------------------------------ <-- SCF
Initial  -6.63120047E+004  0.00000000E+000                       231.19  <-- SCF
      1  -6.63120072E+004  7.05998499E+000   2.81984190E-005     239.70  <-- SCF
      2  -6.63120072E+004  7.05998499E+000   1.83645940E-010     245.92  <-- SCF
      3  -6.63120072E+004  7.05998123E+000   1.66253010E-008     252.13  <-- SCF
      4  -6.63120072E+004  7.05998780E+000   5.59515463E-010     258.38  <-- SCF
      5  -6.63120072E+004  7.05998592E+000  -5.72311620E-011     264.58  <-- SCF
------------------------------------------------------------------------ <-- SCF
 
Final energy, E             =  -66312.00717254     eV
Final free energy (E-TS)    =  -66312.00717254     eV
(energies not corrected for finite basis set)
 
NB est. 0K energy (E-0.5TS)      =  -66312.00717254     eV
 
Calculating total energy with cut-off of  816.342eV.
------------------------------------------------------------------------ <-- SCF
SCF loop      Energy           Fermi           Energy gain       Timer   <-- SCF
                               energy          per atom          (sec)   <-- SCF
------------------------------------------------------------------------ <-- SCF
Initial  -6.63120072E+004  0.00000000E+000                       266.71  <-- SCF
      1  -6.63120101E+004  7.05998734E+000   3.27195619E-005     275.42  <-- SCF
      2  -6.63120101E+004  7.05998734E+000   1.93489137E-010     281.71  <-- SCF
      3  -6.63120101E+004  7.05998105E+000   1.99575046E-008     288.04  <-- SCF
      4  -6.63120101E+004  7.05998632E+000   6.39385979E-010     294.34  <-- SCF
      5  -6.63120101E+004  7.05998260E+000  -1.20930711E-011     300.66  <-- SCF
------------------------------------------------------------------------ <-- SCF
 
Final energy, E             =  -66312.01005369     eV
Final free energy (E-TS)    =  -66312.01005369     eV
(energies not corrected for finite basis set)
 
NB est. 0K energy (E-0.5TS)      =  -66312.01005369     eV
 
 For future reference: finite basis dEtot/dlog(Ecut) =      -0.437793eV
 Total energy corrected for finite basis set =  -66312.010077 eV
 
  =====================================================================
  +       Calculation of Nuclear Magnetic Resonance Parameters        +
  + ================================================================= +
 
  Starting Calculation of Electric Field Gradient Tensors         |<-- EFG
  +---------------- MEMORY AND SCRATCH DISK ESTIMATES PER PROCESS --------------+
  |                                                     Memory          Disk    |
  | Model and support data                              151.1 MB         0.0 MB |
  | NMR EFG calculation requirements                     27.3 MB         0.0 MB |
  |                                               ----------------------------- |
  | Approx. total storage required per process          178.3 MB         0.0 MB |
  |                                                                             |
  | Requirements will fluctuate during execution and may exceed these estimates |
  +-----------------------------------------------------------------------------+
  Total Time for EFG Tensors                      30.54 sec       |<-- EFG
 
  Starting Calculation of Chemical Shielding Tensors              |<-- NMR
  +---------------- MEMORY AND SCRATCH DISK ESTIMATES PER PROCESS --------------+
  |                                                     Memory          Disk    |
  | Model and support data                              151.1 MB         0.0 MB |
  | NMR chemical shift calculation requirements          90.3 MB         0.0 MB |
  |                                               ----------------------------- |
  | Approx. total storage required per process          241.3 MB         0.0 MB |
  |                                                                             |
  | Requirements will fluctuate during execution and may exceed these estimates |
  +-----------------------------------------------------------------------------+
  Starting k-point:   1 of   1                                    |<-- NMR
  Total Time for step 1 of 6:                    269.12 sec       |<-- NMR
  Total Time for step 2 of 6:                    268.81 sec       |<-- NMR
  Total Time for step 3 of 6:                    269.29 sec       |<-- NMR
  Total Time for step 4 of 6:                    269.22 sec       |<-- NMR
  Total Time for step 5 of 6:                    269.28 sec       |<-- NMR
  Total Time for step 6 of 6:                    269.42 sec       |<-- NMR
  Total Time for Chemical Shielding Tensors     2367.18 sec       |<-- NMR
 
  ========================================================================
  |           Chemical Shielding and Electric Field Gradient Tensors     |
  |----------------------------------------------------------------------|
  |     Nucleus                Shielding tensor             EFG Tensor   |
  |  Species       Ion    Iso(ppm)   Aniso(ppm)  Asym    Cq(MHz)    Eta  |
  |    O           1     -316.42      -8.03      0.68  -3.779E-02   0.95 |
  |    O           2     -316.83     -15.25      0.93  -3.736E-02   0.54 |
  |    O           3     -316.41       6.64      0.40  -6.347E-02   0.17 |
  |    O           4     -316.54      12.65      0.46  -6.015E-02   0.69 |
  |    O           5     -318.39       9.36      0.65   6.676E-02   0.77 |
  |    O           6     -319.37      -7.43      0.75  -6.645E-02   0.67 |
  |    O           7     -318.41      14.57      0.01  -8.473E-02   0.62 |
  |    O           8     -318.84      -9.88      0.95  -4.400E-02   0.78 |
  |    O           9      -82.98      83.49      0.30  -3.188E+00   0.09 |
  |    O          10      -17.42     -40.98      0.82   3.874E+00   0.87 |
  |    O          11      -84.64      84.94      0.34  -3.199E+00   0.10 |
  |    O          12     -164.41     151.70      0.75   1.002E+00   0.91 |
  |    O          13     -160.92     142.87      0.79   1.078E+00   0.69 |
  |    O          14      -89.25      84.08      0.19  -3.190E+00   0.14 |
  |    O          15        0.53      67.75      0.79   3.862E+00   0.91 |
  |    O          16      -17.71     -42.04      0.77   3.862E+00   0.87 |
  |    O          17      -20.95      40.76      0.81   3.889E+00   0.82 |
  |    O          18     -160.17     147.03      0.76   1.082E+00   0.67 |
  |    O          19      -91.92      84.88      0.18  -3.194E+00   0.13 |
  |    O          20     -159.54     151.51      0.80   1.117E+00   0.66 |
  |    O          21      -91.40      90.08      0.18  -3.225E+00   0.13 |
  |    O          22     -163.47     151.61      0.80   1.080E+00   0.78 |
  |    O          23      -88.85      85.60      0.19  -3.148E+00   0.08 |
  |    O          24       -3.44      68.96      0.67   3.838E+00   0.89 |
  |    O          25      -89.15      81.19      0.07  -3.186E+00   0.09 |
  |    O          26      -87.62      81.10      0.11  -3.231E+00   0.09 |
  |    O          27      -86.77      77.78      0.31  -3.255E+00   0.11 |
  |    O          28     -161.42     156.80      0.79   1.063E+00   0.77 |
  |    O          29     -163.47     159.77      0.79   1.084E+00   0.84 |
  |    O          30      -88.49      90.06      0.20  -3.239E+00   0.11 |
  |    O          31       -2.59      65.71      0.97   3.788E+00   0.94 |
  |    O          32       -4.18      65.88      0.96   3.773E+00   0.93 |
  |    O          33      -85.34      83.63      0.22  -3.202E+00   0.09 |
  |    O          34      -85.80      78.11      0.06  -3.170E+00   0.09 |
  |    O          35      -90.55      91.11      0.20  -3.214E+00   0.12 |
  |    O          36      -88.95      87.32      0.05  -3.150E+00   0.07 |
  |    O          37      -85.31      83.48      0.21  -3.157E+00   0.07 |
  |    O          38     -164.36     164.34      0.82   1.105E+00   0.82 |
  |    O          39      -21.37      40.51      0.26   3.961E+00   0.79 |
  |    O          40     -163.17     154.25      0.80   1.018E+00   0.82 |
  |    O          41      -18.39      38.51      0.78   3.925E+00   0.83 |
  |    O          42     -162.50     149.99      0.76   1.006E+00   0.83 |
  |    O          43     -160.21     143.96      0.78   1.090E+00   0.68 |
  |    O          44      -80.09      81.92      0.33  -3.150E+00   0.07 |
  |    O          45      -84.97      85.20      0.35  -3.222E+00   0.09 |
  |    O          46     -161.10     157.57      0.79   1.067E+00   0.77 |
  |    O          47      -22.17      42.58      0.35   3.940E+00   0.78 |
  |    O          48      -91.91      90.37      0.29  -3.144E+00   0.11 |
  |    O          49      -85.72      74.87      0.10  -3.216E+00   0.09 |
  |    O          50     -163.89     157.38      0.83   1.108E+00   0.76 |
  |    O          51      -89.23      79.55      0.17  -3.209E+00   0.10 |
  |    O          52      -87.84      93.47      0.30  -3.203E+00   0.10 |
  |    O          53     -166.56     166.43      0.81   1.058E+00   0.94 |
  |    O          54      -88.23      85.18      0.22  -3.169E+00   0.08 |
  |    O          55     -162.07     153.40      0.74   1.055E+00   0.76 |
  |    O          56     -160.62     153.61      0.84   1.124E+00   0.67 |
  |    Zr          1     1623.18    -125.18      0.17  -3.658E+01   0.19 |
  |    Zr          2     1623.10    -120.67      0.14  -3.857E+01   0.12 |
  |    Zr          3     1628.49    -126.97      0.15  -3.722E+01   0.07 |
  |    Zr          4     1634.19    -129.04      0.17  -3.834E+01   0.15 |
  |    Zr          5     1623.24    -120.89      0.10  -3.863E+01   0.09 |
  |    Zr          6     1628.64    -125.33      0.04  -3.728E+01   0.19 |
  |    Zr          7     1628.28    -124.67      0.09  -3.733E+01   0.15 |
  |    Zr          8     1623.62    -119.11      0.15  -3.845E+01   0.09 |
  |    Zr          9     1629.36    -120.92      0.08  -3.901E+01   0.08 |
  |    Sn          1     3239.87     -47.20      0.18   1.244E+02   0.07 |
  |    Sn          2     3245.94     -60.25      0.11   1.221E+02   0.08 |
  |    Sn          3     3245.75     -58.45      0.08   1.222E+02   0.01 |
  |    Sn          4     3258.37     -57.66      0.28   1.283E+02   0.17 |
  |    Sn          5     3251.99     -47.64      0.10   1.301E+02   0.12 |
  |    Sn          6     3258.77     -57.26      0.28   1.284E+02   0.15 |
  |    Sn          7     3246.83     -62.67      0.28   1.231E+02   0.22 |
  |    La          1     4701.20     755.70      0.05  -8.255E+01   0.11 |
  |    La          2     4661.50     655.57      0.09  -8.162E+01   0.16 |
  |    La          3     4655.74     656.10      0.10  -8.015E+01   0.16 |
  |    La          4     4752.66     870.79      0.04  -8.670E+01   0.07 |
  |    La          5     4659.56     625.06      0.01  -8.086E+01   0.03 |
  |    La          6     4699.16     769.64      0.05  -8.170E+01   0.07 |
  |    La          7     4712.07     746.85      0.03  -8.485E+01   0.09 |
  |    La          8     4655.15     655.67      0.11  -8.018E+01   0.17 |
  |    La          9     4749.59     872.76      0.05  -8.522E+01   0.08 |
  |    La         10     4652.69     630.50      0.00  -7.977E+01   0.03 |
  |    La         11     4656.67     659.63      0.10  -8.024E+01   0.17 |
  |    La         12     4603.69     509.28      0.09  -7.671E+01   0.09 |
  |    La         13     4554.49     383.00      0.08  -7.374E+01   0.10 |
  |    La         14     4661.02     623.93      0.01  -8.076E+01   0.02 |
  |    La         15     4708.25     752.06      0.04  -8.366E+01   0.10 |
  |    La         16     4700.43     784.62      0.13  -8.169E+01   0.16 |
  ========================================================================
 
 *********************** Forces ***********************
 *                                                    *
 *            Cartesian components (eV/A)             *
 * -------------------------------------------------- *
 *                   x            y            z      *
 *                                                    *
 * O         1      0.00203      0.00518     -0.00330 *
 * O         2      0.00100     -0.00327     -0.00809 *
 * O         3     -0.00793      0.00105      0.00057 *
 * O         4      0.00265     -0.00509     -0.00243 *
 * O         5     -0.00533      0.00408     -0.00865 *
 * O         6     -0.00641     -0.01005      0.00557 *
 * O         7     -0.00614      0.00305      0.01243 *
 * O         8      0.00407     -0.01002     -0.01045 *
 * O         9     -0.00955     -0.00777     -0.00652 *
 * O        10      0.01138     -0.01426     -0.01263 *
 * O        11      0.00245     -0.00384      0.00733 *
 * O        12     -0.00146     -0.00194      0.01399 *
 * O        13      0.00756     -0.01960     -0.00505 *
 * O        14      0.00524     -0.01281     -0.00512 *
 * O        15      0.00007      0.02718     -0.00383 *
 * O        16     -0.00168     -0.02035     -0.00165 *
 * O        17     -0.00210     -0.01130     -0.00618 *
 * O        18     -0.01442      0.00105      0.01399 *
 * O        19      0.00876     -0.00166     -0.01658 *
 * O        20      0.00625     -0.00458     -0.01491 *
 * O        21      0.00678      0.01916     -0.00333 *
 * O        22      0.00181      0.01174     -0.00128 *
 * O        23      0.00902      0.00326      0.01614 *
 * O        24      0.00417     -0.02558     -0.00595 *
 * O        25     -0.00075      0.00765     -0.01524 *
 * O        26     -0.00604     -0.01663     -0.00858 *
 * O        27     -0.00885      0.01541     -0.00259 *
 * O        28     -0.00981      0.01378      0.01122 *
 * O        29     -0.00213      0.01120      0.00992 *
 * O        30     -0.01047      0.00335      0.01134 *
 * O        31      0.00986      0.00060     -0.03946 *
 * O        32     -0.01009     -0.00155      0.03398 *
 * O        33      0.00020      0.02049      0.00704 *
 * O        34     -0.00101      0.01220      0.01425 *
 * O        35     -0.00673      0.01976      0.00271 *
 * O        36     -0.02122      0.00459     -0.00197 *
 * O        37     -0.00630      0.01358     -0.01256 *
 * O        38     -0.00008      0.00748      0.01160 *
 * O        39     -0.00367     -0.00759     -0.00231 *
 * O        40      0.00071     -0.01543      0.00665 *
 * O        41     -0.00759     -0.00427      0.00395 *
 * O        42      0.01173     -0.01087     -0.01238 *
 * O        43      0.00928     -0.00391     -0.01104 *
 * O        44      0.00214     -0.01724      0.00408 *
 * O        45     -0.00371     -0.00041     -0.01097 *
 * O        46      0.01339      0.00242      0.00218 *
 * O        47      0.00183     -0.00356     -0.00713 *
 * O        48     -0.00003     -0.00274      0.00435 *
 * O        49     -0.01176      0.00284      0.00629 *
 * O        50      0.00299      0.01558      0.00150 *
 * O        51      0.00234     -0.01801      0.00502 *
 * O        52     -0.00907      0.00736      0.00076 *
 * O        53      0.00208     -0.00656      0.00639 *
 * O        54      0.00684      0.01338      0.00279 *
 * O        55     -0.00214      0.00622      0.00580 *
 * O        56      0.00659     -0.02319     -0.00856 *
 * Zr        1      0.00258     -0.00444      0.00913 *
 * Zr        2      0.01880      0.01750      0.00461 *
 * Zr        3      0.01390     -0.00005     -0.00643 *
 * Zr        4     -0.00119      0.00240     -0.00472 *
 * Zr        5     -0.00276      0.02086      0.00401 *
 * Zr        6      0.01337      0.00446     -0.00326 *
 * Zr        7     -0.01469     -0.01049     -0.00390 *
 * Zr        8      0.01395      0.00935      0.01822 *
 * Zr        9      0.00603      0.01086      0.00437 *
 * Sn        1      0.01965     -0.02059     -0.01699 *
 * Sn        2     -0.00925      0.01406     -0.01178 *
 * Sn        3     -0.01445     -0.01522      0.01388 *
 * Sn        4     -0.00622     -0.00322      0.00654 *
 * Sn        5     -0.00397      0.00185      0.00404 *
 * Sn        6      0.00048     -0.00563     -0.00201 *
 * Sn        7      0.01417      0.01702      0.01625 *
 * La        1      0.00244      0.00450     -0.00183 *
 * La        2     -0.00968     -0.00729      0.01269 *
 * La        3     -0.00938      0.00230     -0.00469 *
 * La        4     -0.01142      0.01584      0.01633 *
 * La        5      0.00099      0.00175      0.00930 *
 * La        6      0.01300     -0.01582      0.01132 *
 * La        7      0.00181     -0.01261     -0.00993 *
 * La        8      0.00968     -0.00167      0.00516 *
 * La        9      0.00807      0.00790     -0.01526 *
 * La       10      0.00148      0.00016      0.00821 *
 * La       11     -0.00581     -0.00110     -0.00872 *
 * La       12     -0.01426      0.01542     -0.00930 *
 * La       13     -0.00368      0.00622      0.00715 *
 * La       14      0.00873     -0.00606     -0.00501 *
 * La       15      0.00391     -0.00180      0.00161 *
 * La       16     -0.01304     -0.01601     -0.02208 *
 *                                                    *
 ******************************************************
 
 ***************** Stress Tensor *****************
 *                                               *
 *          Cartesian components (GPa)           *
 * --------------------------------------------- *
 *             x             y             z     *
 *                                               *
 *  x      0.048896      0.005930     -0.015950  *
 *  y      0.005930      0.020779     -0.007100  *
 *  z     -0.015950     -0.007100      0.022329  *
 *                                               *
 *  Pressure:   -0.0307                          *
 *                                               *
 *************************************************
 
 Pseudo atomic calculation performed for O 2s2 2p4
 
 Converged in 39 iterations to a total energy of -432.6554 eV
 
 
 Pseudo atomic calculation performed for Zr 4s2 4p6 4d2 5s2
 
 Converged in 38 iterations to a total energy of -1285.4931 eV
 
 
 Pseudo atomic calculation performed for Sn 4d10 5s2 5p2
 
 Converged in 48 iterations to a total energy of -2044.5413 eV
 
 
 Pseudo atomic calculation performed for La 5s2 5p6 5d1 6s2
 
 Converged in 34 iterations to a total energy of -968.0373 eV
 
Charge spilling parameter for spin component 1 = 0.24%
 
     Atomic Populations (Mulliken)
     -----------------------------
Species   Ion     s      p      d      f     Total  Charge (e)
==============================================================
  O        1     1.87   5.00   0.00   0.00   6.87    -0.87
  O        2     1.87   5.00   0.00   0.00   6.87    -0.87
  O        3     1.87   5.00   0.00   0.00   6.87    -0.87
  O        4     1.87   5.00   0.00   0.00   6.87    -0.87
  O        5     1.87   5.00   0.00   0.00   6.87    -0.87
  O        6     1.87   5.00   0.00   0.00   6.87    -0.87
  O        7     1.87   5.00   0.00   0.00   6.87    -0.87
  O        8     1.87   5.00   0.00   0.00   6.87    -0.87
  O        9     1.87   4.99   0.00   0.00   6.85    -0.85
  O       10     1.88   5.02   0.00   0.00   6.91    -0.91
  O       11     1.87   4.99   0.00   0.00   6.86    -0.86
  O       12     1.86   4.94   0.00   0.00   6.80    -0.80
  O       13     1.86   4.95   0.00   0.00   6.80    -0.80
  O       14     1.87   4.99   0.00   0.00   6.85    -0.85
  O       15     1.88   5.02   0.00   0.00   6.91    -0.91
  O       16     1.88   5.02   0.00   0.00   6.91    -0.91
  O       17     1.88   5.02   0.00   0.00   6.91    -0.91
  O       18     1.86   4.95   0.00   0.00   6.80    -0.80
  O       19     1.87   4.99   0.00   0.00   6.85    -0.85
  O       20     1.86   4.95   0.00   0.00   6.80    -0.80
  O       21     1.87   4.99   0.00   0.00   6.86    -0.86
  O       22     1.86   4.95   0.00   0.00   6.80    -0.80
  O       23     1.87   4.99   0.00   0.00   6.86    -0.86
  O       24     1.88   5.02   0.00   0.00   6.91    -0.91
  O       25     1.87   4.99   0.00   0.00   6.86    -0.86
  O       26     1.87   4.99   0.00   0.00   6.86    -0.86
  O       27     1.87   4.99   0.00   0.00   6.86    -0.86
  O       28     1.86   4.95   0.00   0.00   6.80    -0.80
  O       29     1.86   4.95   0.00   0.00   6.80    -0.80
  O       30     1.87   4.99   0.00   0.00   6.86    -0.86
  O       31     1.88   5.02   0.00   0.00   6.91    -0.91
  O       32     1.88   5.02   0.00   0.00   6.91    -0.91
  O       33     1.87   4.99   0.00   0.00   6.86    -0.86
  O       34     1.87   4.99   0.00   0.00   6.86    -0.86
  O       35     1.87   4.99   0.00   0.00   6.86    -0.86
  O       36     1.87   4.99   0.00   0.00   6.86    -0.86
  O       37     1.87   4.99   0.00   0.00   6.85    -0.85
  O       38     1.86   4.95   0.00   0.00   6.80    -0.80
  O       39     1.88   5.03   0.00   0.00   6.91    -0.91
  O       40     1.86   4.94   0.00   0.00   6.80    -0.80
  O       41     1.88   5.03   0.00   0.00   6.91    -0.91
  O       42     1.86   4.94   0.00   0.00   6.80    -0.80
  O       43     1.86   4.95   0.00   0.00   6.80    -0.80
  O       44     1.87   4.99   0.00   0.00   6.86    -0.86
  O       45     1.87   4.99   0.00   0.00   6.86    -0.86
  O       46     1.86   4.95   0.00   0.00   6.80    -0.80
  O       47     1.88   5.03   0.00   0.00   6.91    -0.91
  O       48     1.87   4.99   0.00   0.00   6.85    -0.85
  O       49     1.87   4.99   0.00   0.00   6.86    -0.86
  O       50     1.86   4.95   0.00   0.00   6.80    -0.80
  O       51     1.87   4.99   0.00   0.00   6.86    -0.86
  O       52     1.87   4.99   0.00   0.00   6.85    -0.85
  O       53     1.85   4.94   0.00   0.00   6.80    -0.80
  O       54     1.87   4.99   0.00   0.00   6.86    -0.86
  O       55     1.86   4.94   0.00   0.00   6.80    -0.80
  O       56     1.86   4.95   0.00   0.00   6.80    -0.80
  Zr       1     2.37   6.49   1.92   0.00  10.78     1.22
  Zr       2     2.37   6.48   1.92   0.00  10.77     1.23
  Zr       3     2.37   6.48   1.92   0.00  10.78     1.22
  Zr       4     2.37   6.47   1.93   0.00  10.77     1.23
  Zr       5     2.37   6.48   1.92   0.00  10.77     1.23
  Zr       6     2.37   6.48   1.92   0.00  10.78     1.22
  Zr       7     2.37   6.48   1.92   0.00  10.77     1.23
  Zr       8     2.36   6.48   1.93   0.00  10.76     1.24
  Zr       9     2.36   6.46   1.93   0.00  10.75     1.25
  Sn       1     1.05   1.31  10.00   0.00  12.36     1.64
  Sn       2     1.05   1.32  10.00   0.00  12.36     1.64
  Sn       3     1.05   1.32  10.00   0.00  12.36     1.64
  Sn       4     1.05   1.31  10.00   0.00  12.36     1.64
  Sn       5     1.05   1.31  10.00   0.00  12.36     1.64
  Sn       6     1.05   1.31  10.00   0.00  12.36     1.64
  Sn       7     1.05   1.32  10.00   0.00  12.36     1.64
  La       1     2.07   6.16   1.19   0.00   9.42     1.58
  La       2     2.08   6.18   1.19   0.00   9.45     1.55
  La       3     2.08   6.17   1.19   0.00   9.44     1.56
  La       4     2.02   6.15   1.19   0.00   9.36     1.64
  La       5     2.08   6.18   1.19   0.00   9.45     1.55
  La       6     2.04   6.15   1.19   0.00   9.39     1.61
  La       7     2.06   6.17   1.19   0.00   9.42     1.58
  La       8     2.08   6.17   1.19   0.00   9.44     1.56
  La       9     2.02   6.14   1.19   0.00   9.36     1.64
  La      10     2.09   6.17   1.19   0.00   9.46     1.54
  La      11     2.06   6.17   1.19   0.00   9.43     1.57
  La      12     2.11   6.19   1.19   0.00   9.49     1.51
  La      13     2.13   6.21   1.19   0.00   9.53     1.47
  La      14     2.06   6.18   1.19   0.00   9.44     1.56
  La      15     2.04   6.16   1.19   0.00   9.40     1.60
  La      16     2.04   6.15   1.20   0.00   9.39     1.61
==============================================================
 
            Bond              Population      Length (A)
============================================================
         O 30 -- Sn 5              0.35        2.09852
         O 21 -- Sn 4              0.34        2.10125
         O 27 -- Sn 6              0.35        2.10140
         O 35 -- Sn 6              0.34        2.10230
         O 33 -- Sn 4              0.35        2.10232
         O 26 -- Sn 7              0.35        2.10258
         O 11 -- Sn 4              0.35        2.10272
         O 52 -- Sn 5              0.35        2.10292
         O 41 -- Sn 7              0.34        2.10335
         O 45 -- Sn 6              0.35        2.10417
         O 51 -- Sn 2              0.35        2.10495
         O 39 -- Sn 1              0.34        2.10531
         O 44 -- Sn 5              0.35        2.10548
         O 25 -- Sn 3              0.34        2.10631
         O 39 -- Sn 3              0.33        2.10663
         O 9  -- Sn 5              0.35        2.10679
         O 38 -- Zr 2              0.42        2.10680
         O 47 -- Sn 1              0.34        2.10685
         O 19 -- Sn 6              0.34        2.10718
         O 47 -- Sn 2              0.33        2.10745
         O 14 -- Sn 5              0.34        2.10804
         O 49 -- Sn 1              0.34        2.10811
         O 53 -- Zr 3              0.42        2.10821
         O 34 -- Sn 1              0.34        2.10833
         O 17 -- Sn 3              0.34        2.10844
         O 10 -- Sn 2              0.34        2.10893
         O 41 -- Sn 1              0.34        2.10900
         O 36 -- Sn 7              0.34        2.10920
         O 23 -- Sn 2              0.34        2.10923
         O 50 -- Zr 8              0.41        2.10946
         O 29 -- Zr 4              0.42        2.11017
         O 54 -- Sn 3              0.34        2.11018
         O 38 -- Zr 6              0.41        2.11025
         O 48 -- Sn 4              0.34        2.11044
         O 16 -- Sn 7              0.34        2.11058
         O 10 -- Sn 3              0.34        2.11065
         O 16 -- Sn 2              0.34        2.11072
         O 53 -- Zr 5              0.41        2.11115
         O 50 -- Zr 1              0.41        2.11196
         O 37 -- Sn 1              0.34        2.11223
         O 17 -- Sn 7              0.33        2.11267
         O 15 -- Sn 4              0.33        2.11326
         O 56 -- Zr 1              0.42        2.11354
         O 15 -- Sn 6              0.33        2.11382
         O 20 -- Zr 6              0.42        2.11412
         O 56 -- Zr 7              0.41        2.11425
         O 22 -- Zr 7              0.42        2.11458
         O 46 -- Zr 3              0.43        2.11465
         O 29 -- Zr 9              0.42        2.11472
         O 24 -- Sn 3              0.33        2.11490
         O 30 -- Zr 8              0.44        2.11568
         O 28 -- Zr 4              0.42        2.11576
         O 28 -- Zr 7              0.43        2.11598
         O 35 -- Zr 2              0.45        2.11641
         O 24 -- Sn 5              0.33        2.11690
         O 22 -- Zr 9              0.42        2.11722
         O 43 -- Zr 9              0.43        2.11756
         O 46 -- Zr 4              0.42        2.11804
         O 21 -- Zr 5              0.44        2.11848
         O 52 -- Zr 1              0.45        2.11887
         O 13 -- Zr 9              0.43        2.11891
         O 20 -- Zr 4              0.42        2.11895
         O 31 -- Sn 2              0.33        2.11896
         O 40 -- Zr 6              0.43        2.11904
         O 18 -- Zr 8              0.43        2.12002
         O 31 -- Sn 6              0.33        2.12003
         O 32 -- Sn 4              0.33        2.12007
         O 12 -- Zr 9              0.44        2.12022
         O 18 -- Zr 5              0.43        2.12048
         O 55 -- Zr 2              0.43        2.12084
         O 55 -- Zr 5              0.43        2.12090
         O 32 -- Sn 7              0.33        2.12093
         O 19 -- Zr 7              0.45        2.12097
         O 12 -- Zr 5              0.43        2.12135
         O 40 -- Zr 3              0.43        2.12167
         O 48 -- Zr 1              0.45        2.12192
         O 42 -- Zr 8              0.44        2.12196
         O 14 -- Zr 4              0.46        2.12196
         O 42 -- Zr 2              0.44        2.12217
         O 11 -- Zr 7              0.44        2.12273
         O 13 -- Zr 8              0.42        2.12289
         O 43 -- Zr 2              0.42        2.12346
         O 45 -- Zr 1              0.45        2.12374
         O 27 -- Zr 6              0.45        2.12377
         O 33 -- Zr 3              0.44        2.12406
         O 9  -- Zr 6              0.45        2.12412
         O 26 -- Zr 5              0.45        2.12443
         O 25 -- Zr 8              0.45        2.12465
         O 36 -- Zr 3              0.44        2.12552
         O 44 -- Zr 3              0.45        2.12603
         O 34 -- Zr 9              0.45        2.12620
         O 51 -- Zr 2              0.44        2.12636
         O 23 -- Zr 6              0.44        2.12773
         O 54 -- Zr 1              0.45        2.12933
         O 37 -- Zr 7              0.45        2.13015
         O 49 -- Zr 4              0.45        2.13036
         O 4  -- La 4              0.20        2.35758
         O 4  -- La 9              0.19        2.35833
         O 8  -- La 4              0.17        2.35866
         O 6  -- La 9              0.17        2.35878
         O 4  -- La 16             0.18        2.35896
         O 4  -- La 6              0.18        2.35905
         O 1  -- La 15             0.18        2.35939
         O 2  -- La 7              0.18        2.35949
         O 6  -- La 1              0.17        2.35957
         O 1  -- La 1              0.17        2.35990
         O 7  -- La 7              0.20        2.35995
         O 5  -- La 15             0.18        2.36018
         O 7  -- La 16             0.16        2.36058
         O 5  -- La 6              0.16        2.36068
         O 1  -- La 11             0.17        2.36076
         O 3  -- La 3              0.17        2.36081
         O 2  -- La 2              0.17        2.36082
         O 3  -- La 8              0.17        2.36096
         O 1  -- La 10             0.18        2.36119
         O 6  -- La 14             0.18        2.36119
         O 5  -- La 2              0.19        2.36119
         O 7  -- La 3              0.17        2.36140
         O 5  -- La 8              0.18        2.36141
         O 8  -- La 5              0.18        2.36144
         O 3  -- La 5              0.18        2.36145
         O 8  -- La 10             0.16        2.36148
         O 7  -- La 11             0.17        2.36164
         O 3  -- La 14             0.17        2.36207
         O 6  -- La 12             0.18        2.36286
         O 2  -- La 12             0.15        2.36369
         O 8  -- La 13             0.17        2.36500
         O 2  -- La 13             0.16        2.36534
         O 42 -- La 16             0.12        2.66529
         O 28 -- La 16             0.11        2.66647
         O 10 -- La 13             0.23        2.66786
         O 20 -- La 12             0.13        2.66803
         O 38 -- La 10             0.13        2.66820
         O 17 -- La 10             0.23        2.66835
         O 33 -- La 13             0.19        2.66842
         O 13 -- La 11             0.13        2.66865
         O 29 -- La 6              0.11        2.66878
         O 12 -- La 6              0.12        2.66939
         O 43 -- La 3              0.13        2.66943
         O 22 -- La 9              0.12        2.67066
         O 41 -- La 12             0.23        2.67101
         O 56 -- La 2              0.13        2.67120
         O 16 -- La 5              0.23        2.67138
         O 47 -- La 1              0.23        2.67143
         O 32 -- La 12             0.25        2.67147
         O 46 -- La 1              0.12        2.67173
         O 18 -- La 8              0.13        2.67175
         O 50 -- La 5              0.13        2.67182
         O 48 -- La 6              0.17        2.67192
         O 55 -- La 10             0.14        2.67223
         O 22 -- La 14             0.14        2.67230
         O 53 -- La 1              0.13        2.67254
         O 40 -- La 9              0.11        2.67283
         O 27 -- La 12             0.19        2.67300
         O 31 -- La 13             0.25        2.67345
         O 40 -- La 4              0.13        2.67375
         O 55 -- La 1              0.13        2.67415
         O 52 -- La 6              0.17        2.67461
         O 47 -- La 11             0.23        2.67463
         O 16 -- La 14             0.23        2.67493
         O 44 -- La 13             0.19        2.67509
         O 15 -- La 13             0.24        2.67528
         O 39 -- La 3              0.23        2.67530
         O 11 -- La 8              0.17        2.67554
         O 54 -- La 3              0.18        2.67557
         O 50 -- La 4              0.12        2.67559
         O 39 -- La 8              0.23        2.67564
         O 51 -- La 1              0.18        2.67568
         O 19 -- La 16             0.16        2.67572
         O 24 -- La 13             0.24        2.67603
         O 36 -- La 2              0.19        2.67604
         O 30 -- La 16             0.16        2.67610
         O 13 -- La 15             0.13        2.67611
         O 53 -- La 9              0.12        2.67616
         O 23 -- La 11             0.17        2.67619
         O 19 -- La 9              0.18        2.67633
         O 46 -- La 15             0.13        2.67639
         O 12 -- La 9              0.12        2.67696
         O 18 -- La 5              0.14        2.67704
         O 29 -- La 15             0.14        2.67710
         O 15 -- La 12             0.24        2.67712
         O 30 -- La 11             0.18        2.67721
         O 17 -- La 15             0.23        2.67741
         O 21 -- La 8              0.18        2.67747
         O 25 -- La 8              0.17        2.67758
         O 21 -- La 6              0.16        2.67760
         O 43 -- La 14             0.14        2.67768
         O 35 -- La 3              0.18        2.67772
         O 26 -- La 10             0.18        2.67772
         O 24 -- La 10             0.25        2.67787
         O 45 -- La 3              0.17        2.67789
         O 9  -- La 10             0.19        2.67796
         O 41 -- La 2              0.23        2.67807
         O 37 -- La 8              0.19        2.67810
         O 35 -- La 16             0.16        2.67811
         O 56 -- La 7              0.14        2.67826
         O 45 -- La 5              0.19        2.67885
         O 11 -- La 14             0.19        2.67916
         O 49 -- La 12             0.19        2.67921
         O 14 -- La 16             0.17        2.67945
         O 14 -- La 6              0.17        2.67957
         O 48 -- La 4              0.19        2.67958
         O 34 -- La 3              0.18        2.67975
         O 38 -- La 4              0.12        2.67986
         O 25 -- La 15             0.18        2.67996
         O 10 -- La 7              0.24        2.68025
         O 31 -- La 5              0.25        2.68027
         O 32 -- La 14             0.24        2.68036
         O 52 -- La 2              0.19        2.68058
         O 20 -- La 7              0.14        2.68071
         O 34 -- La 11             0.18        2.68079
         O 28 -- La 7              0.14        2.68092
         O 26 -- La 5              0.19        2.68095
         O 9  -- La 11             0.18        2.68102
         O 51 -- La 14             0.18        2.68103
         O 27 -- La 9              0.17        2.68146
         O 42 -- La 4              0.13        2.68150
         O 49 -- La 1              0.19        2.68152
         O 23 -- La 7              0.20        2.68210
         O 36 -- La 15             0.18        2.68248
         O 54 -- La 7              0.20        2.68344
         O 33 -- La 4              0.17        2.68360
         O 37 -- La 2              0.19        2.68401
         O 44 -- La 2              0.19        2.68552
         O 21 -- O 48             -0.06        2.79250
         O 19 -- O 35             -0.06        2.79288
         O 47 -- O 51             -0.06        2.79379
         O 17 -- O 26             -0.06        2.79431
         O 23 -- O 47             -0.06        2.79434
         O 39 -- O 54             -0.06        2.79460
         O 14 -- O 30             -0.06        2.79473
         O 14 -- O 52             -0.06        2.79495
         O 35 -- O 45             -0.06        2.79572
         O 11 -- O 21             -0.06        2.79576
         O 25 -- O 39             -0.06        2.79594
         O 19 -- O 27             -0.06        2.79616
         O 36 -- O 41             -0.06        2.79714
         O 16 -- O 26             -0.06        2.79752
         O 47 -- O 49             -0.06        2.79772
         O 9  -- O 30             -0.06        2.79800
         O 37 -- O 39             -0.06        2.79804
         O 16 -- O 51             -0.06        2.79862
         O 34 -- O 39             -0.06        2.79875
         O 32 -- O 41             -0.05        2.79886
         O 34 -- O 47             -0.06        2.79903
         O 17 -- O 25             -0.06        2.79909
         O 17 -- O 24             -0.05        2.79940
         O 41 -- O 49             -0.06        2.79941
         O 10 -- O 31             -0.05        2.80032
         O 15 -- O 33             -0.06        2.80124
         O 10 -- O 24             -0.05        2.80128
         O 15 -- O 27             -0.06        2.80182
         O 17 -- O 36             -0.06        2.80416
         O 33 -- O 48             -0.06        2.80431
         O 44 -- O 52             -0.06        2.80645
         O 10 -- O 23             -0.05        2.80717
         O 10 -- O 54             -0.05        2.80783
         O 37 -- O 41             -0.05        2.80810
         O 16 -- O 31             -0.05        2.80925
         O 9  -- O 24             -0.05        2.80943
         O 24 -- O 44             -0.05        2.80977
         O 16 -- O 32             -0.05        2.80983
         O 31 -- O 45             -0.05        2.81010
         O 11 -- O 32             -0.05        2.81018
         O 40 -- O 53             -0.03        2.81021
         O 46 -- O 53             -0.03        2.81065
         O 12 -- O 29             -0.04        2.81156
         O 15 -- O 32             -0.05        2.81282
         O 38 -- O 40             -0.03        2.81370
         O 38 -- O 55             -0.03        2.81378
         O 12 -- O 53             -0.03        2.81434
         O 15 -- O 31             -0.05        2.81435
         O 19 -- O 28             -0.03        2.81453
         O 53 -- O 55             -0.03        2.81468
         O 30 -- O 42             -0.03        2.81673
         O 29 -- O 46             -0.03        2.81760
         O 19 -- O 22             -0.03        2.81790
         O 35 -- O 42             -0.03        2.81797
         O 12 -- O 21             -0.03        2.81831
         O 14 -- O 29             -0.03        2.81857
         O 14 -- O 28             -0.03        2.81878
         O 48 -- O 50             -0.03        2.81946
         O 12 -- O 22             -0.03        2.81959
         O 48 -- O 52             -0.03        2.81976
         O 9  -- O 38             -0.03        2.82025
         O 20 -- O 27             -0.03        2.82044
         O 13 -- O 30             -0.03        2.82055
         O 52 -- O 56             -0.03        2.82100
         O 18 -- O 50             -0.03        2.82118
         O 42 -- O 50             -0.03        2.82135
         O 35 -- O 43             -0.03        2.82179
         O 45 -- O 50             -0.03        2.82205
         O 38 -- O 42             -0.03        2.82271
         O 28 -- O 56             -0.03        2.82326
         O 18 -- O 21             -0.03        2.82334
         O 13 -- O 29             -0.03        2.82412
         O 11 -- O 22             -0.03        2.82435
         O 27 -- O 40             -0.03        2.82442
         O 22 -- O 43             -0.03        2.82462
         O 20 -- O 28             -0.03        2.82601
         O 18 -- O 25             -0.03        2.82772
         O 51 -- O 55             -0.03        2.82803
         O 33 -- O 40             -0.03        2.82852
         O 36 -- O 46             -0.03        2.82938
         O 46 -- O 49             -0.03        2.82948
         O 20 -- O 49             -0.03        2.82969
         O 26 -- O 55             -0.03        2.83004
         O 37 -- O 56             -0.03        2.83065
         O 33 -- O 44             -0.03        2.83075
         O 13 -- O 25             -0.03        2.83092
         O 54 -- O 56             -0.03        2.83117
         O 13 -- O 34             -0.03        2.83127
         O 34 -- O 43             -0.03        2.83141
         O 43 -- O 51             -0.03        2.83261
         O 20 -- O 23             -0.03        2.83332
         O 18 -- O 26             -0.03        2.83406
         O 45 -- O 54             -0.03        2.83433
         O 9  -- O 23             -0.03        2.83637
         O 11 -- O 37             -0.03        2.83694
         O 36 -- O 44             -0.03        2.84057
============================================================
 
Initialisation time =     25.14 s
Calculation time    =   2689.81 s
Finalisation time   =      0.12 s
Total time          =   2715.08 s
Peak Memory Use     = 3626260 kB
  
Overall parallel efficiency rating: Good (73%)                                  
  
Data was distributed by:-
G-vector (64-way); efficiency rating: Good (75%)                                
k-point (14-way); efficiency rating: Excellent (97%)                            
