 +-------------------------------------------------+
 |                                                 |
 |      CCC   AA    SSS  TTTTT  EEEEE  PPPP        |
 |     C     A  A  S       T    E      P   P       |
 |     C     AAAA   SS     T    EEE    PPPP        |
 |     C     A  A     S    T    E      P           |
 |      CCC  A  A  SSS     T    EEEEE  P           |
 |                                                 |
 +-------------------------------------------------+
 |                                                 |
 | Welcome to Academic Release CASTEP version 16.1 |          
 | Ab Initio Total Energy Program                  |
 |                                                 |
 | Authors:                                        |
 | M. Segall, M. Probert, C. Pickard, P. Hasnip,   |
 | S. Clark, K. Refson, J. R. Yates, M. Payne      |
 |                                                 |
 | Contributors:                                   |
 | P. Lindan, P. Haynes, J. White, V. Milman,      |
 | N. Govind, M. Gibson, P. Tulip, V. Cocula,      |
 | B. Montanari, D. Quigley, M. Glover,            |
 | L. Bernasconi, A. Perlov, M. Plummer,           |
 | E. McNellis, J. Meyer, J. Gale, D. Jochym       |
 | J. Aarons, B. Walker, R. Gillen, D. Jones       |
 | T. Green, I. J. Bush, C. J. Armstrong,          |
 | E. J. Higgins, E. L. Brown, M. S. McFly         |
 |                                                 |
 | Copyright (c) 2000 - 2015                       |
 |                                                 |
 |     Distributed under the terms of an           |
 |     Agreement between the United Kingdom        |
 |     Car-Parrinello (UKCP) Consortium,           |
 |     Daresbury Laboratory and Accelrys, Inc.     |
 |                                                 |
 | Please cite                                     |
 |                                                 |
 |     "First principles methods using CASTEP"     |
 |                                                 |
 |         Zeitschrift fuer Kristallographie       |
 |           220(5-6) pp. 567-570 (2005)           |
 |                                                 |
 | S. J. Clark, M. D. Segall, C. J. Pickard,       |
 | P. J. Hasnip, M. J. Probert, K. Refson,         |
 | M. C. Payne                                     |
 |                                                 |
 |       in all publications arising from          |
 |              your use of CASTEP                 |
 |                                                 |
 +-------------------------------------------------+
 
 
 Compiled for linux_x86_64_cray-XT on Tue, 22 Mar 2022 15:42:52 +0000
 from code version b833c1ffcd7d+  Fri, 13 Jun 2014 17:24:31 +0100
 Compiler: Cray Fortran 11.0.4; Optimisation: intermediate
 MATHLIBS: LibSci (LAPACK version 3.6.1)
 FFT Lib : default
 Fundamental constants values: CODATA 2010
 
 Run started: Fri, 25 Mar 2022 21:48:18 +0000
 +-------------------------------------------------+
 |                                                 |
 |           N   N    M   M    RRRR                |
 |           NN  N    MM MM    R   R               |
 |           N N N    M M M    RRRR                |
 |           N  NN    M   M    R  R                |
 |           N   N    M   M    R   R               |
 |                                                 |
 +-------------------------------------------------+
 |                                                 |
 | Welcome to Materials Studio CASTEP-NMR          |
 |                                                 |
 | Authors:                                        |
 | J.R. Yates, C.J. Pickard, F. Mauri              |
 |                                                 |
 | Contributors:                                   |
 | T.F.G. Green, S.A. Joyce                        |
 |                                                 |
 | Copyright (c) 2004 - 2015                       |
 |                                                 |
 | Please cite the appropriate publications in all |
 | work arising from your use of CASTEP NMR.       |
 |                                                 |
 | For NMR Shielding Tensors cite:                 |
 |    "All-electron magnetic response with         |
 |    pseudopotentials: NMR chemical shifts",      |
 |    C. J. Pickard, F. Mauri;                     |
 |    Physical Review B63 245101 (2001), and       |
 |                                                 |
 |    "Calculation of NMR Chemical Shifts          |
 |    for extended systems using                   |
 |    Ultrasoft Pseudopotentials",                 |
 |    J. R. Yates, C. J. Pickard and F. Mauri      |
 |    Physical Review B76 024401 (2007)            |
 |                                                 |
 | For Electric Field Gradients cite:              |
 |   "Accurate First Principles Prediction of 17O  |
 |    NMR Parameters in SiO2: Assignment of the    |
 |    Zeolite Ferrierite Spectrum"                 |
 |    M. Profeta, F. Mauri and C. J. Pickard       |
 |    J. Amer. Chem. Soc. 125 541 (2003)           |
 |                                                 |
 | For Spin-Spin (J) Couplings cite:               |
 |   "A first principles theory of NMR J-coupling  |
 |   in solid-state systems"                       |
 |   S.A. Joyce, J.R. Yates, C.J. Pickard, F. Mauri|
 |   J. Chem. Phys. 127 204107 (2007)              |
 |                                                 |
 |   "Relativistic NMR J-coupling with ultrasoft   |
 |   pseudopotentials and the zeroth-order regular |
 |   approximation"                                |
 |   T.F.G. Green and J.R. Yates                   |
 |   J. Chem. Phys. 140 234106 (2014)              |
 |                                                 |
 +-------------------------------------------------+
 
 
 Atomic calculation performed for O: 1s2 2s2 2p4
 
 Converged in 44 iterations to an ae energy of -2040.855 eV
 
 
 Atomic calculation performed for O: 1s2 2s2 2p4
 
 Exceeded max iterations: converged to 0.000000062 eV
 
   ============================================================                
   | Pseudopotential Report - Date of generation 25-03-2022   |                
   ------------------------------------------------------------                
   | Element: O Ionic charge:  6.00 Level of theory: PBE      |                
   | Atomic Solver: ZORA (scalar)                             |                
   |                                                          |                
   |               Reference Electronic Structure             |                
   |         Orbital         Occupation         Energy        |                
   |            2s              2.000           -0.881        |                
   |            2p              4.000           -0.332        |                
   |                                                          |                
   |                 Pseudopotential Definition               |                
   |        Beta     l      e      Rc     scheme   norm       |                
   |          1      0   -0.881   1.100     qc      0         |                
   |          2      0    0.250   1.100     qc      0         |                
   |          3      1   -0.332   1.100     qc      0         |                
   |          4      1    0.250   1.100     qc      0         |                
   |         loc     2    0.000   1.100     pn      0         |                
   |                                                          |                
   | Augmentation charge Rinner = 0.769                       |                
   | Partial core correction Rc = 0.769                       |                
   ------------------------------------------------------------                
   | "2|1.1|15|18|20|20:21(qc=7)"                             |                
   ------------------------------------------------------------                
   |      Author: Chris J. Pickard, Cambridge University      |                
   ============================================================                
 
 Atomic calculation performed for Zr: 1s2 2s2 2p6 3s2 3p6 3d10 4s2 4p6 4d2 5s2
 
 Converged in 52 iterations to an ae energy of -97719.888 eV
 
 
 Atomic calculation performed for Zr: 1s2 2s2 2p6 3s2 3p6 3d10 4s2 4p6 4d2 5s2
 
 Exceeded max iterations: converged to 0.000000936 eV
 
 Warning: ion_atom_descreen_psp: negative charge density encountered
   ============================================================                
   | Pseudopotential Report - Date of generation 25-03-2022   |                
   ------------------------------------------------------------                
   | Element: Zr Ionic charge: 12.00 Level of theory: PBE     |                
   | Atomic Solver: ZORA (scalar)                             |                
   |                                                          |                
   |               Reference Electronic Structure             |                
   |         Orbital         Occupation         Energy        |                
   |            4s              2.000           -2.003        |                
   |            4p              6.000           -1.193        |                
   |            5s              2.000           -0.163        |                
   |            4d              2.000           -0.132        |                
   |                                                          |                
   |                 Pseudopotential Definition               |                
   |        Beta     l      e      Rc     scheme   norm       |                
   |          1      0   -2.003   2.105     qc      0         |                
   |          2      0   -0.163   2.105     qc      0         |                
   |          3      0    0.250   2.105     qc      0         |                
   |          4      1   -1.193   2.105     qc      0         |                
   |          5      1    0.250   2.105     qc      0         |                
   |          6      2   -0.132   2.105     qc      0         |                
   |          7      2    0.250   2.105     qc      0         |                
   |         loc     3    0.000   2.105     pn      0         |                
   |                                                          |                
   | Augmentation charge Rinner = 1.471                       |                
   | Partial core correction Rc = 1.471                       |                
   ------------------------------------------------------------                
   | "3|2.1|7|8|9|40U:50:41:42"                               |                
   ------------------------------------------------------------                
   |      Author: Chris J. Pickard, Cambridge University      |                
   ============================================================                
 
 Atomic calculation performed for Sn:
 1s2 2s2 2p6 3s2 3p6 3d10 4s2 4p6 4d10 5s2 5p2
 
 Converged in 58 iterations to an ae energy of -167539.320 eV
 
 
 Atomic calculation performed for Sn:
 1s2 2s2 2p6 3s2 3p6 3d10 4s2 4p6 4d10 5s2 5p2
 
 Exceeded max iterations: converged to -0.000000491 eV
 
   ============================================================                
   | Pseudopotential Report - Date of generation 25-03-2022   |                
   ------------------------------------------------------------                
   | Element: Sn Ionic charge: 14.00 Level of theory: PBE     |                
   | Atomic Solver: ZORA (scalar)                             |                
   |                                                          |                
   |               Reference Electronic Structure             |                
   |         Orbital         Occupation         Energy        |                
   |            4d             10.000           -0.950        |                
   |            5s              2.000           -0.388        |                
   |            5p              2.000           -0.136        |                
   |                                                          |                
   |                 Pseudopotential Definition               |                
   |        Beta     l      e      Rc     scheme   norm       |                
   |          1      0   -0.388   2.199     qc      0         |                
   |          2      0    0.250   2.199     qc      0         |                
   |          3      1   -0.136   2.199     qc      0         |                
   |          4      1    0.250   2.199     qc      0         |                
   |          5      2   -0.950   2.199     qc      0         |                
   |          6      2    0.250   2.199     qc      0         |                
   |         loc     3    0.000   2.199     pn      0         |                
   |                                                          |                
   | Augmentation charge Rinner = 1.537                       |                
   | Partial core correction Rc = 1.537                       |                
   ------------------------------------------------------------                
   | "3|2.2|7|8|9|50:51:42"                                   |                
   ------------------------------------------------------------                
   |      Author: Chris J. Pickard, Cambridge University      |                
   ============================================================                
 
 Atomic calculation performed for La:
 1s2 2s2 2p6 3s2 3p6 3d10 4s2 4p6 4d10 5s2 5p6 5d1 6s2
 
 Converged in 55 iterations to an ae energy of -230121.495 eV
 
 
 Atomic calculation performed for La:
 1s2 2s2 2p6 3s2 3p6 3d10 4s2 4p6 4d10 5s2 5p6 5d1 6s2
 
 Exceeded max iterations: converged to 0.000001134 eV
 
 Warning: ion_atom_descreen_psp: negative charge density encountered
   ============================================================                
   | Pseudopotential Report - Date of generation 25-03-2022   |                
   ------------------------------------------------------------                
   | Element: La Ionic charge: 11.00 Level of theory: PBE     |                
   | Atomic Solver: ZORA (scalar)                             |                
   |                                                          |                
   |               Reference Electronic Structure             |                
   |         Orbital         Occupation         Energy        |                
   |            5s              2.000           -1.430        |                
   |            5p              6.000           -0.823        |                
   |            6s              2.000           -0.135        |                
   |            5d              1.000           -0.114        |                
   |                                                          |                
   |                 Pseudopotential Definition               |                
   |        Beta     l      e      Rc     scheme   norm       |                
   |          1      0   -1.430   2.298     qc      0         |                
   |          2      0   -0.135   2.298     qc      0         |                
   |          3      0    0.250   2.298     qc      0         |                
   |          4      1   -0.823   2.298     qc      0         |                
   |          5      1    0.250   2.298     qc      0         |                
   |          6      2   -0.114   2.298     qc      0         |                
   |          7      2    0.250   2.298     qc      0         |                
   |         loc     2    0.000   2.298     pn      0         |                
   |                                                          |                
   | Augmentation charge Rinner = 1.606                       |                
   | Partial core correction Rc = 1.606                       |                
   ------------------------------------------------------------                
   | "2|2.3|5|6|7|50U:60:51:52(qc=4.5)"                       |                
   ------------------------------------------------------------                
   |      Author: Chris J. Pickard, Cambridge University      |                
   ============================================================                
 
 Pseudo atomic calculation performed for O 2s2 2p4
 
 Converged in 39 iterations to a total energy of -432.6554 eV
 
 
 Pseudo atomic calculation performed for Zr 4s2 4p6 4d2 5s2
 
 Converged in 38 iterations to a total energy of -1285.4931 eV
 
 
 Pseudo atomic calculation performed for Sn 4d10 5s2 5p2
 
 Converged in 48 iterations to a total energy of -2044.5413 eV
 
 
 Pseudo atomic calculation performed for La 5s2 5p6 5d1 6s2
 
 Converged in 34 iterations to a total energy of -968.0373 eV
 
 Calculation parallelised over 896 processes.
 Data is distributed by G-vector(64-way) and k-point(14-way)

 ************************************ Title ************************************
 nmr testing

 ***************************** General Parameters ******************************
  
 output verbosity                               : normal  (1)
 write checkpoint data to                       : 69.check
 type of calculation                            : Magnetic Resonance
 stress calculation                             : on
 density difference calculation                 : off
 electron localisation func (ELF) calculation   : off
 Hirshfeld analysis                             : off
 unlimited duration calculation
 timing information                             : on
 memory usage estimate                          : on
 write final potential to formatted file        : off
 write final density to formatted file          : off
 write BibTeX reference list                    : off
 write OTFG pseudopotential files               : on
 checkpoint writing                             : off
  
 output         length unit                     : A
 output           mass unit                     : amu
 output           time unit                     : ps
 output         charge unit                     : e
 output           spin unit                     : hbar/2
 output         energy unit                     : eV
 output          force unit                     : eV/A
 output       velocity unit                     : A/ps
 output       pressure unit                     : GPa
 output     inv_length unit                     : 1/A
 output      frequency unit                     : cm-1
 output force constant unit                     : eV/A**2
 output         volume unit                     : A**3
 output   IR intensity unit                     : (D/A)**2/amu
 output         dipole unit                     : D
 output         efield unit                     : eV/A/e
 output        entropy unit                     : J/mol/K
  
 wavefunctions paging                           : none
 random number generator seed                   : randomised (214818595)
 data distribution                              : optimal for this architecture
 optimization strategy                          : maximize speed(+++)

 *********************** Exchange-Correlation Parameters ***********************
  
 using functional                               : Perdew Burke Ernzerhof
 relativistic treatment                         : ZORA
 DFT+D: Semi-empirical dispersion correction    : off

 ************************* Pseudopotential Parameters **************************
  
 pseudopotential representation                 : reciprocal space
 <beta|phi> representation                      : reciprocal space
 spin-orbit coupling                            : off

 **************************** Basis Set Parameters *****************************
  
 plane wave basis set cut-off                   :   816.3416   eV
 size of standard grid                          :     1.7500
 size of   fine   gmax                          :    25.6161   1/A
 finite basis set correction                    : automatic
 number of sample energies                      :          3
           sample  spacing                      :     5.0000   eV

 **************************** Electronic Parameters ****************************
  
 number of  electrons                           :  718.0    
 net charge of system                           :  0.000    
 treating system as non-spin-polarized
 number of bands                                :        431

 ********************* Electronic Minimization Parameters **********************
  
 Method: Treating system as metallic with density mixing treatment of electrons,
         and number of  SD  steps               :          1
         and number of  CG  steps               :          4
  
 total energy / atom convergence tol.           : 0.1000E-08   eV
 eigen-energy convergence tolerance             : 0.2451E-09   eV
 max force / atom convergence tol.              : ignored
 convergence tolerance window                   :          3   cycles
 max. number of SCF cycles                      :         50
 number of fixed-spin iterations                :         10
 smearing scheme                                : Gaussian
 smearing width                                 : 0.2000       eV
 Fermi energy convergence tolerance             : 0.2721E-13   eV
 periodic dipole correction                     : NONE

 ************************** Density Mixing Parameters **************************
  
 density-mixing scheme                          : Broyden
 max. length of mixing history                  :         20
 charge density mixing amplitude                : 0.8000    
 cut-off energy for mixing                      :  816.3       eV

 *********************** Population Analysis Parameters ************************
  
 Population analysis with cutoff                :  3.000       A

 ************************ Magnetic Resonance Parameters ************************
  
 Magnetic Resonance Property                    : Chemical Shielding + EFG
 Position Operator Method                       : crystal
 max. number of MagRes CG steps                 :        250
 convergence tolerance window                   :          2   cycles
 energy convergence tolerance                   : 0.1000E-11   eV
 band convergence tolerance                     : 0.1000E-08   eV

 *******************************************************************************
  
 
                           -------------------------------
                                      Unit Cell
                           -------------------------------
        Real Lattice(A)                      Reciprocal Lattice(1/A)
  10.9002539   0.0029972   0.0004618        0.5764256  -0.0001585  -0.0000254
   0.0029972  10.9002540   0.0004618       -0.0001585   0.5764256  -0.0000254
   0.0004799   0.0004799  10.9067727       -0.0000244  -0.0000244   0.5760811
 
                       Lattice parameters(A)       Cell Angles
                    a =   10.900254          alpha =   89.995051
                    b =   10.900254          beta  =   89.995051
                    c =   10.906773          gamma =   89.968491
 
                       Current cell volume = 1295.893937       A**3
 
                           -------------------------------
                                     Cell Contents
                           -------------------------------
                         Total number of ions in cell =   88
                      Total number of species in cell =    4
                        Max number of any one species =   56
 
            xxxxxxxxxxxxxxxxxxxxxxxxxxxxxxxxxxxxxxxxxxxxxxxxxxxxxxxxxxxx
            x  Element    Atom        Fractional coordinates of atoms  x
            x            Number           u          v          w      x
            x----------------------------------------------------------x
            x  O            1         0.124820   0.124820   0.124878   x 
            x  O            2         0.624972   0.125075   0.625146   x 
            x  O            3         0.125075   0.624972   0.625146   x 
            x  O            4         0.625094   0.625094   0.124768   x 
            x  O            5         0.874886   0.375113   0.374846   x 
            x  O            6         0.874861   0.874861   0.875341   x 
            x  O            7         0.375230   0.375230   0.875021   x 
            x  O            8         0.375113   0.874886   0.374846   x 
            x  O            9         0.420707   0.126169   0.125757   x 
            x  O           10         0.330617   0.125107   0.624572   x 
            x  O           11         0.829249   0.625869   0.624344   x 
            x  O           12         0.919942   0.625092   0.125151   x 
            x  O           13         0.126169   0.420707   0.125757   x 
            x  O           14         0.623793   0.329692   0.125619   x 
            x  O           15         0.625869   0.829249   0.624344   x 
            x  O           16         0.124487   0.919376   0.625071   x 
            x  O           17         0.125331   0.125331   0.419335   x 
            x  O           18         0.125524   0.623992   0.329226   x 
            x  O           19         0.625020   0.625020   0.830145   x 
            x  O           20         0.625069   0.124956   0.920422   x 
            x  O           21         0.874563   0.670440   0.375496   x 
            x  O           22         0.874902   0.579886   0.874920   x 
            x  O           23         0.373814   0.079398   0.874146   x 
            x  O           24         0.374602   0.169656   0.375520   x 
            x  O           25         0.169656   0.374602   0.375520   x 
            x  O           26         0.079579   0.875812   0.376059   x 
            x  O           27         0.579886   0.874902   0.874920   x 
            x  O           28         0.670179   0.375295   0.875494   x 
            x  O           29         0.874826   0.375139   0.079572   x 
            x  O           30         0.375231   0.375231   0.169601   x 
            x  O           31         0.374197   0.876256   0.670759   x 
            x  O           32         0.875454   0.875454   0.580273   x 
            x  O           33         0.670440   0.874563   0.375496   x 
            x  O           34         0.079398   0.373814   0.874146   x 
            x  O           35         0.375295   0.670179   0.875494   x 
            x  O           36         0.875812   0.079579   0.376059   x 
            x  O           37         0.876256   0.374197   0.670759   x 
            x  O           38         0.375139   0.874826   0.079572   x 
            x  O           39         0.125107   0.330617   0.624572   x 
            x  O           40         0.625092   0.919942   0.125151   x 
            x  O           41         0.919375   0.124487   0.625071   x 
            x  O           42         0.329692   0.623793   0.125619   x 
            x  O           43         0.124956   0.625069   0.920422   x 
            x  O           44         0.623992   0.125524   0.329226   x 
            x  O           45         0.420373   0.624981   0.624810   x 
            x  O           46         0.829712   0.124821   0.124837   x 
            x  O           47         0.124906   0.124906   0.830598   x 
            x  O           48         0.625475   0.625475   0.420333   x 
            x  O           49         0.876138   0.170402   0.873915   x 
            x  O           50         0.374933   0.579871   0.374270   x 
            x  O           51         0.170402   0.876138   0.873915   x 
            x  O           52         0.579871   0.374933   0.374270   x 
            x  O           53         0.874875   0.874875   0.169839   x 
            x  O           54         0.374032   0.374032   0.580090   x 
            x  O           55         0.124821   0.829712   0.124837   x 
            x  O           56         0.624981   0.420373   0.624810   x 
            x  Zr           1         0.499765   0.499765   0.499650   x 
            x  Zr           2         0.250071   0.749943  -0.000015   x 
            x  Zr           3         0.750300  -0.000176   0.250041   x 
            x  Zr           4         0.749943   0.250071  -0.000015   x 
            x  Zr           5        -0.000176   0.750300   0.250041   x 
            x  Zr           6         0.499892   0.000065  -0.000051   x 
            x  Zr           7         0.749970   0.499979   0.750223   x 
            x  Zr           8         0.000065   0.499892  -0.000051   x 
            x  Zr           9         0.499979   0.749970   0.750223   x 
            x  Sn           1         0.001324   0.248639   0.748609   x 
            x  Sn           2         0.248639   0.001324   0.748609   x 
            x  Sn           3         0.249567   0.249567   0.500388   x 
            x  Sn           4         0.750586   0.750586   0.499573   x 
            x  Sn           5         0.250930   0.498981   0.250935   x 
            x  Sn           6         0.498981   0.250930   0.250935   x 
            x  Sn           7         0.000825   0.000825   0.500894   x 
            x  La           1        -0.000155  -0.000155   0.000191   x 
            x  La           2         0.749734   0.250183   0.499919   x 
            x  La           3         0.250122   0.500316   0.750219   x 
            x  La           4         0.500054   0.750032   0.249899   x 
            x  La           5         0.250183   0.749734   0.499919   x 
            x  La           6         0.750032   0.500054   0.249899   x 
            x  La           7         0.500316   0.250122   0.750219   x 
            x  La           8        -0.000353   0.500383   0.499973   x 
            x  La           9         0.749957   0.749957  -0.000029   x 
            x  La          10         0.250042  -0.000432   0.249541   x 
            x  La          11         0.250024   0.250024   0.000013   x 
            x  La          12         0.749617  -0.000098   0.750366   x 
            x  La          13         0.500383  -0.000353   0.499973   x 
            x  La          14        -0.000098   0.749617   0.750366   x 
            x  La          15        -0.000432   0.250042   0.249541   x 
            x  La          16         0.500121   0.500121  -0.000127   x 
            xxxxxxxxxxxxxxxxxxxxxxxxxxxxxxxxxxxxxxxxxxxxxxxxxxxxxxxxxxxx
 
 
                         No user defined ionic velocities
 
                           -------------------------------
                                   Details of Species
                           -------------------------------
 
                               Mass of species in AMU
                                    O   15.9994000
                                    Zr   91.2240000
                                    Sn  118.7100000
                                    La  138.9055000
 
                          Electric Quadrupole Moment (Barn)
                                    O   -0.0255800 Isotope 17
                                    Zr   -0.1760000 Isotope 91
                                    Sn    1.0000000 No Isotope Defined
                                    La    0.2000000 Isotope139
 
                          Files used for pseudopotentials:
                                    O 2|1.1|15|18|20|20:21(qc=7)
                                    Zr 3|2.1|7|8|9|40U:50:41:42
                                    Sn 3|2.2|7|8|9|50:51:42
                                    La 2|2.3|5|6|7|50U:60:51:52(qc=4.5)
 
                           -------------------------------
                              k-Points For BZ Sampling
                           -------------------------------
                       MP grid size for SCF calculation is  3  3  3
                            with an offset of   0.000  0.000  0.000
                       Number of kpoints used =   14
 
                           -------------------------------
                               Symmetry and Constraints
                           -------------------------------
 
                      Maximum deviation from symmetry =  0.00000         ANG
 
         There are no symmetry operations specified or generated for this cell
                      Number of ionic constraints     = 3
                      Point group of crystal =     1: C1, 1, 1
                      Space group of crystal =     8: Cm, C -2y
 
 
                         Centre of mass is constrained
             Set iprint > 1 for details of linear ionic constraints
 
                         Number of cell constraints= 0
                         Cell constraints are:  1 2 3 4 5 6
 
                         External pressure/stress (GPa)
                          0.00000   0.00000   0.00000
                                    0.00000   0.00000
                                              0.00000
  
+---------------- MEMORY AND SCRATCH DISK ESTIMATES PER PROCESS --------------+
|                                                     Memory          Disk    |
| Baseline code, static data and system overhead      839.0 MB         0.0 MB |
| BLAS internal memory storage                          0.0 MB         0.0 MB |
| Model and support data                              149.4 MB         0.0 MB |
| Electronic energy minimisation requirements          28.2 MB         0.0 MB |
| Force calculation requirements                        1.5 MB         0.0 MB |
| Stress calculation requirements                       1.8 MB         0.0 MB |
|                                               ----------------------------- |
| Approx. total storage required per process         1016.6 MB         0.0 MB |
|                                                                             |
| Requirements will fluctuate during execution and may exceed these estimates |
+-----------------------------------------------------------------------------+
Calculating finite basis set correction with  3 cut-off energies.
Calculating total energy with cut-off of  806.342eV.
------------------------------------------------------------------------ <-- SCF
SCF loop      Energy           Fermi           Energy gain       Timer   <-- SCF
                               energy          per atom          (sec)   <-- SCF
------------------------------------------------------------------------ <-- SCF
Initial  -5.53270710E+004  0.00000000E+000                        35.23  <-- SCF
      1  -6.37783529E+004  7.53688163E+000   9.60372948E+001      46.08  <-- SCF
      2  -6.63407015E+004  6.95791015E+000   2.91175970E+001      53.56  <-- SCF
      3  -6.64213742E+004  6.60341911E+000   9.16736002E-001      61.80  <-- SCF
      4  -6.64162299E+004  7.70308184E+000  -5.84586458E-002      71.41  <-- SCF
      5  -6.63107616E+004  7.14008006E+000  -1.19850287E+000      80.85  <-- SCF
      6  -6.63122196E+004  7.01915990E+000   1.65677411E-002      92.91  <-- SCF
      7  -6.63119314E+004  7.10491589E+000  -3.27431017E-003     102.88  <-- SCF
      8  -6.63120006E+004  7.10589408E+000   7.85798590E-004     116.33  <-- SCF
      9  -6.63120203E+004  7.10285818E+000   2.24171393E-004     127.61  <-- SCF
     10  -6.63120214E+004  7.09948741E+000   1.18331339E-005     138.19  <-- SCF
     11  -6.63120205E+004  7.10055771E+000  -9.76564537E-006     149.14  <-- SCF
     12  -6.63120207E+004  7.09988924E+000   2.39861973E-006     160.84  <-- SCF
     13  -6.63120207E+004  7.09901190E+000   1.38339108E-007     170.80  <-- SCF
     14  -6.63120207E+004  7.09860716E+000  -4.93588820E-007     180.98  <-- SCF
     15  -6.63120207E+004  7.09804263E+000  -9.56838938E-008     191.94  <-- SCF
     16  -6.63120207E+004  7.09778366E+000   3.73296230E-009     201.49  <-- SCF
     17  -6.63120207E+004  7.09771294E+000  -8.73232225E-011     210.32  <-- SCF
     18  -6.63120207E+004  7.09764546E+000   3.56323745E-010     217.62  <-- SCF
------------------------------------------------------------------------ <-- SCF
 
Final energy, E             =  -66312.02067023     eV
Final free energy (E-TS)    =  -66312.02067023     eV
(energies not corrected for finite basis set)
 
NB est. 0K energy (E-0.5TS)      =  -66312.02067023     eV
 
Calculating total energy with cut-off of  811.342eV.
------------------------------------------------------------------------ <-- SCF
SCF loop      Energy           Fermi           Energy gain       Timer   <-- SCF
                               energy          per atom          (sec)   <-- SCF
------------------------------------------------------------------------ <-- SCF
Initial  -6.63120207E+004  0.00000000E+000                       219.75  <-- SCF
      1  -6.63120232E+004  7.09750917E+000   2.82388933E-005     228.33  <-- SCF
      2  -6.63120232E+004  7.09750917E+000   4.18335889E-010     235.72  <-- SCF
      3  -6.63120232E+004  7.09756301E+000   1.65123855E-008     244.15  <-- SCF
      4  -6.63120232E+004  7.09756174E+000  -1.81972596E-009     251.87  <-- SCF
      5  -6.63120232E+004  7.09757752E+000  -2.95295922E-010     258.14  <-- SCF
      6  -6.63120232E+004  7.09759675E+000  -9.33697581E-011     264.46  <-- SCF
------------------------------------------------------------------------ <-- SCF
 
Final energy, E             =  -66312.02315648     eV
Final free energy (E-TS)    =  -66312.02315648     eV
(energies not corrected for finite basis set)
 
NB est. 0K energy (E-0.5TS)      =  -66312.02315648     eV
 
Calculating total energy with cut-off of  816.342eV.
------------------------------------------------------------------------ <-- SCF
SCF loop      Energy           Fermi           Energy gain       Timer   <-- SCF
                               energy          per atom          (sec)   <-- SCF
------------------------------------------------------------------------ <-- SCF
Initial  -6.63120232E+004  0.00000000E+000                       266.58  <-- SCF
      1  -6.63120261E+004  7.09763999E+000   3.31059005E-005     275.23  <-- SCF
      2  -6.63120261E+004  7.09763999E+000   2.11769361E-010     282.14  <-- SCF
      3  -6.63120261E+004  7.09762056E+000   2.03200155E-008     288.42  <-- SCF
      4  -6.63120261E+004  7.09761671E+000   6.13653049E-010     294.68  <-- SCF
      5  -6.63120261E+004  7.09761046E+000  -1.09962577E-010     300.96  <-- SCF
------------------------------------------------------------------------ <-- SCF
 
Final energy, E             =  -66312.02607164     eV
Final free energy (E-TS)    =  -66312.02607164     eV
(energies not corrected for finite basis set)
 
NB est. 0K energy (E-0.5TS)      =  -66312.02607164     eV
 
 For future reference: finite basis dEtot/dlog(Ecut) =      -0.438156eV
 Total energy corrected for finite basis set =  -66312.026072 eV
 
  =====================================================================
  +       Calculation of Nuclear Magnetic Resonance Parameters        +
  + ================================================================= +
 
  Starting Calculation of Electric Field Gradient Tensors         |<-- EFG
  +---------------- MEMORY AND SCRATCH DISK ESTIMATES PER PROCESS --------------+
  |                                                     Memory          Disk    |
  | Model and support data                              151.1 MB         0.0 MB |
  | NMR EFG calculation requirements                     27.3 MB         0.0 MB |
  |                                               ----------------------------- |
  | Approx. total storage required per process          178.4 MB         0.0 MB |
  |                                                                             |
  | Requirements will fluctuate during execution and may exceed these estimates |
  +-----------------------------------------------------------------------------+
  Total Time for EFG Tensors                      33.06 sec       |<-- EFG
 
  Starting Calculation of Chemical Shielding Tensors              |<-- NMR
  +---------------- MEMORY AND SCRATCH DISK ESTIMATES PER PROCESS --------------+
  |                                                     Memory          Disk    |
  | Model and support data                              151.1 MB         0.0 MB |
  | NMR chemical shift calculation requirements          90.3 MB         0.0 MB |
  |                                               ----------------------------- |
  | Approx. total storage required per process          241.4 MB         0.0 MB |
  |                                                                             |
  | Requirements will fluctuate during execution and may exceed these estimates |
  +-----------------------------------------------------------------------------+
  Starting k-point:   1 of   1                                    |<-- NMR
  Total Time for step 1 of 6:                    261.79 sec       |<-- NMR
  Total Time for step 2 of 6:                    261.56 sec       |<-- NMR
  Total Time for step 3 of 6:                    261.87 sec       |<-- NMR
  Total Time for step 4 of 6:                    261.50 sec       |<-- NMR
  Total Time for step 5 of 6:                    263.11 sec       |<-- NMR
  Total Time for step 6 of 6:                    263.11 sec       |<-- NMR
  Total Time for Chemical Shielding Tensors     2402.31 sec       |<-- NMR
 
  ========================================================================
  |           Chemical Shielding and Electric Field Gradient Tensors     |
  |----------------------------------------------------------------------|
  |     Nucleus                Shielding tensor             EFG Tensor   |
  |  Species       Ion    Iso(ppm)   Aniso(ppm)  Asym    Cq(MHz)    Eta  |
  |    O           1     -317.82       5.27      0.87   4.466E-02   0.99 |
  |    O           2     -316.69     -10.15      0.58   4.294E-02   0.49 |
  |    O           3     -316.69     -10.16      0.58   4.294E-02   0.49 |
  |    O           4     -317.24     -10.69      0.52   4.453E-02   0.51 |
  |    O           5     -317.77      -5.81      0.93   5.148E-02   0.78 |
  |    O           6     -319.19      -2.34      0.58   4.055E-02   0.98 |
  |    O           7     -318.89      -5.84      0.97   7.318E-02   0.05 |
  |    O           8     -317.77      -5.81      0.93   5.148E-02   0.78 |
  |    O           9      -82.46      83.23      0.17  -3.180E+00   0.07 |
  |    O          10      -21.21      38.66      0.75   3.912E+00   0.84 |
  |    O          11      -82.45      81.09      0.26  -3.198E+00   0.10 |
  |    O          12     -164.44     158.33      0.79   1.018E+00   0.91 |
  |    O          13      -82.46      83.23      0.17  -3.180E+00   0.07 |
  |    O          14      -88.90      74.75      0.11  -3.207E+00   0.12 |
  |    O          15      -82.45      81.09      0.26  -3.198E+00   0.10 |
  |    O          16      -19.12      39.17      0.80   3.914E+00   0.83 |
  |    O          17      -21.26      37.82      0.97   3.857E+00   0.87 |
  |    O          18      -83.03      81.20      0.28  -3.137E+00   0.07 |
  |    O          19     -165.99     161.84      0.77   1.017E+00   0.99 |
  |    O          20     -161.00     156.50      0.80   1.108E+00   0.75 |
  |    O          21      -88.44      91.47      0.21  -3.212E+00   0.11 |
  |    O          22     -164.06     158.78      0.79   1.049E+00   0.88 |
  |    O          23      -85.65      84.33      0.14  -3.143E+00   0.07 |
  |    O          24      -12.87      58.51      0.57   3.850E+00   0.88 |
  |    O          25      -12.87      58.50      0.57   3.850E+00   0.88 |
  |    O          26      -86.95      84.38      0.05  -3.181E+00   0.07 |
  |    O          27     -164.06     158.77      0.79   1.049E+00   0.88 |
  |    O          28     -163.12     160.55      0.77   1.065E+00   0.85 |
  |    O          29     -160.58     156.48      0.80   1.108E+00   0.75 |
  |    O          30      -13.47      59.97      0.22   3.952E+00   0.79 |
  |    O          31      -83.06      83.38      0.15  -3.177E+00   0.07 |
  |    O          32       -6.13      69.03      0.70   3.814E+00   0.88 |
  |    O          33      -88.44      91.47      0.21  -3.212E+00   0.11 |
  |    O          34      -85.65      84.33      0.14  -3.143E+00   0.07 |
  |    O          35     -163.12     160.54      0.77   1.065E+00   0.85 |
  |    O          36      -86.95      84.38      0.05  -3.181E+00   0.07 |
  |    O          37      -83.06      83.38      0.15  -3.177E+00   0.07 |
  |    O          38     -160.58     156.48      0.80   1.108E+00   0.75 |
  |    O          39      -21.21      38.66      0.75   3.912E+00   0.84 |
  |    O          40     -164.44     158.34      0.79   1.018E+00   0.91 |
  |    O          41      -19.12      39.17      0.80   3.914E+00   0.83 |
  |    O          42      -88.90      74.76      0.11  -3.207E+00   0.12 |
  |    O          43     -161.00     156.50      0.80   1.108E+00   0.75 |
  |    O          44      -83.03      81.20      0.28  -3.137E+00   0.07 |
  |    O          45     -160.84     153.33      0.80   1.102E+00   0.68 |
  |    O          46     -160.57     157.95      0.79   1.093E+00   0.74 |
  |    O          47      -21.38      41.39      0.30   3.968E+00   0.79 |
  |    O          48      -89.85      87.61      0.34  -3.107E+00   0.09 |
  |    O          49      -87.47      73.70      0.06  -3.216E+00   0.10 |
  |    O          50      -90.27      92.78      0.22  -3.205E+00   0.10 |
  |    O          51      -87.47      73.71      0.06  -3.216E+00   0.10 |
  |    O          52      -90.27      92.77      0.22  -3.205E+00   0.10 |
  |    O          53     -166.50     163.85      0.80   1.035E+00   0.97 |
  |    O          54      -91.57      76.05      0.07  -3.223E+00   0.09 |
  |    O          55     -160.57     157.94      0.79   1.093E+00   0.74 |
  |    O          56     -160.84     153.33      0.80   1.102E+00   0.68 |
  |    Zr          1     1614.59    -119.01      0.12  -3.712E+01   0.11 |
  |    Zr          2     1634.46    -131.19      0.23  -3.850E+01   0.20 |
  |    Zr          3     1628.68    -127.79      0.18  -3.775E+01   0.03 |
  |    Zr          4     1634.46    -131.19      0.23  -3.850E+01   0.20 |
  |    Zr          5     1628.68    -127.79      0.18  -3.775E+01   0.03 |
  |    Zr          6     1634.19    -126.84      0.17  -3.815E+01   0.12 |
  |    Zr          7     1634.31    -126.55      0.14  -3.849E+01   0.09 |
  |    Zr          8     1634.19    -126.84      0.17  -3.815E+01   0.12 |
  |    Zr          9     1634.31    -126.56      0.14  -3.849E+01   0.09 |
  |    Sn          1     3239.96     -48.04      0.16   1.245E+02   0.07 |
  |    Sn          2     3239.96     -48.03      0.16   1.245E+02   0.07 |
  |    Sn          3     3244.55     -62.85      0.26   1.195E+02   0.10 |
  |    Sn          4     3252.20     -50.11      0.18   1.303E+02   0.18 |
  |    Sn          5     3249.59     -46.80      0.49   1.276E+02   0.10 |
  |    Sn          6     3249.59     -46.81      0.49   1.276E+02   0.10 |
  |    Sn          7     3247.04     -60.26      0.12   1.221E+02   0.15 |
  |    La          1     4701.20     758.30      0.05  -8.269E+01   0.11 |
  |    La          2     4660.64     649.47      0.09  -8.074E+01   0.18 |
  |    La          3     4706.25     751.86      0.04  -8.361E+01   0.10 |
  |    La          4     4703.34     765.23      0.04  -8.288E+01   0.08 |
  |    La          5     4660.64     649.47      0.09  -8.074E+01   0.18 |
  |    La          6     4703.34     765.24      0.04  -8.288E+01   0.08 |
  |    La          7     4706.25     751.85      0.04  -8.361E+01   0.10 |
  |    La          8     4606.49     523.89      0.08  -7.750E+01   0.13 |
  |    La          9     4797.10     979.53      0.01  -8.737E+01   0.01 |
  |    La         10     4659.57     624.79      0.01  -8.097E+01   0.03 |
  |    La         11     4607.42     545.75      0.09  -7.733E+01   0.23 |
  |    La         12     4653.55     631.20      0.00  -8.005E+01   0.02 |
  |    La         13     4606.49     523.89      0.08  -7.750E+01   0.13 |
  |    La         14     4653.55     631.19      0.00  -8.005E+01   0.02 |
  |    La         15     4659.57     624.78      0.01  -8.097E+01   0.03 |
  |    La         16     4698.74     764.86      0.05  -8.176E+01   0.10 |
  ========================================================================
 
 *********************** Forces ***********************
 *                                                    *
 *            Cartesian components (eV/A)             *
 * -------------------------------------------------- *
 *                   x            y            z      *
 *                                                    *
 * O         1      0.01099      0.01099     -0.00594 *
 * O         2      0.00764     -0.00026     -0.00841 *
 * O         3     -0.00026      0.00764     -0.00841 *
 * O         4      0.00110      0.00110      0.00686 *
 * O         5     -0.01148     -0.00250      0.00643 *
 * O         6     -0.00390     -0.00390     -0.00358 *
 * O         7     -0.01096     -0.01096      0.00475 *
 * O         8     -0.00250     -0.01148      0.00643 *
 * O         9     -0.00299      0.01981      0.00344 *
 * O        10      0.00008     -0.01097     -0.00953 *
 * O        11     -0.01342      0.01382     -0.01402 *
 * O        12      0.00084     -0.01765      0.00464 *
 * O        13      0.01981     -0.00299      0.00344 *
 * O        14     -0.02241     -0.02476      0.00897 *
 * O        15      0.01382     -0.01342     -0.01402 *
 * O        16     -0.01258     -0.00802     -0.00288 *
 * O        17     -0.01009     -0.01009     -0.01105 *
 * O        18      0.01127     -0.02815     -0.00611 *
 * O        19     -0.00141     -0.00141     -0.00567 *
 * O        20     -0.00896     -0.00912     -0.02094 *
 * O        21     -0.00122      0.01797      0.02486 *
 * O        22      0.02447      0.00494     -0.00231 *
 * O        23     -0.02298     -0.00189     -0.00324 *
 * O        24      0.00041     -0.01841     -0.00135 *
 * O        25     -0.01841      0.00041     -0.00134 *
 * O        26      0.00035      0.01184      0.02740 *
 * O        27      0.00494      0.02447     -0.00231 *
 * O        28     -0.00749      0.01409      0.00034 *
 * O        29      0.00922      0.00607      0.02052 *
 * O        30     -0.00569     -0.00569      0.00147 *
 * O        31     -0.00797      0.02491      0.00398 *
 * O        32      0.00909      0.00908      0.02421 *
 * O        33      0.01796     -0.00122      0.02486 *
 * O        34     -0.00189     -0.02298     -0.00324 *
 * O        35      0.01409     -0.00750      0.00034 *
 * O        36      0.01183      0.00036      0.02740 *
 * O        37      0.02491     -0.00797      0.00398 *
 * O        38      0.00607      0.00922      0.02052 *
 * O        39     -0.01097      0.00009     -0.00953 *
 * O        40     -0.01765      0.00084      0.00464 *
 * O        41     -0.00801     -0.01258     -0.00289 *
 * O        42     -0.02476     -0.02241      0.00897 *
 * O        43     -0.00912     -0.00896     -0.02094 *
 * O        44     -0.02815      0.01127     -0.00611 *
 * O        45     -0.02722      0.01034     -0.00964 *
 * O        46      0.01822     -0.00101      0.00564 *
 * O        47      0.00395      0.00395     -0.01020 *
 * O        48      0.01616      0.01616      0.01640 *
 * O        49      0.01103      0.01674     -0.01951 *
 * O        50     -0.00464     -0.01057     -0.01500 *
 * O        51      0.01674      0.01103     -0.01951 *
 * O        52     -0.01057     -0.00464     -0.01500 *
 * O        53      0.00421      0.00420      0.00408 *
 * O        54     -0.00393     -0.00393     -0.01256 *
 * O        55     -0.00101      0.01822      0.00564 *
 * O        56      0.01034     -0.02722     -0.00964 *
 * Zr        1     -0.00738     -0.00738      0.01009 *
 * Zr        2      0.00854     -0.00718     -0.00621 *
 * Zr        3      0.00671     -0.03153     -0.01039 *
 * Zr        4     -0.00718      0.00854     -0.00621 *
 * Zr        5     -0.03153      0.00671     -0.01039 *
 * Zr        6      0.02550     -0.02344      0.00603 *
 * Zr        7      0.01388      0.01620      0.01918 *
 * Zr        8     -0.02344      0.02549      0.00603 *
 * Zr        9      0.01620      0.01388      0.01918 *
 * Sn        1      0.02438     -0.03321     -0.02565 *
 * Sn        2     -0.03321      0.02438     -0.02565 *
 * Sn        3      0.00299      0.00299      0.01301 *
 * Sn        4      0.01744      0.01744     -0.01610 *
 * Sn        5      0.03217     -0.01662      0.02079 *
 * Sn        6     -0.01662      0.03217      0.02079 *
 * Sn        7      0.02231      0.02230      0.01100 *
 * La        1     -0.00639     -0.00638     -0.01231 *
 * La        2     -0.00210     -0.00295      0.00092 *
 * La        3      0.00658     -0.01641     -0.00677 *
 * La        4      0.01452     -0.01461     -0.01765 *
 * La        5     -0.00295     -0.00210      0.00092 *
 * La        6     -0.01461      0.01451     -0.01765 *
 * La        7     -0.01640      0.00658     -0.00677 *
 * La        8      0.00609     -0.00617     -0.00395 *
 * La        9     -0.00352     -0.00352      0.01200 *
 * La       10     -0.00508      0.00774      0.00727 *
 * La       11      0.00280      0.00280     -0.00732 *
 * La       12      0.01611     -0.00799      0.00798 *
 * La       13     -0.00616      0.00609     -0.00395 *
 * La       14     -0.00799      0.01612      0.00797 *
 * La       15      0.00773     -0.00508      0.00727 *
 * La       16      0.00372      0.00372      0.01119 *
 *                                                    *
 ******************************************************
 
 ***************** Stress Tensor *****************
 *                                               *
 *          Cartesian components (GPa)           *
 * --------------------------------------------- *
 *             x             y             z     *
 *                                               *
 *  x     -0.058338      0.015946     -0.036108  *
 *  y      0.015946     -0.058337     -0.036107  *
 *  z     -0.036108     -0.036107      0.008929  *
 *                                               *
 *  Pressure:    0.0359                          *
 *                                               *
 *************************************************
 
 Pseudo atomic calculation performed for O 2s2 2p4
 
 Converged in 39 iterations to a total energy of -432.6554 eV
 
 
 Pseudo atomic calculation performed for Zr 4s2 4p6 4d2 5s2
 
 Converged in 38 iterations to a total energy of -1285.4931 eV
 
 
 Pseudo atomic calculation performed for Sn 4d10 5s2 5p2
 
 Converged in 48 iterations to a total energy of -2044.5413 eV
 
 
 Pseudo atomic calculation performed for La 5s2 5p6 5d1 6s2
 
 Converged in 34 iterations to a total energy of -968.0373 eV
 
Charge spilling parameter for spin component 1 = 0.24%
 
     Atomic Populations (Mulliken)
     -----------------------------
Species   Ion     s      p      d      f     Total  Charge (e)
==============================================================
  O        1     1.87   5.00   0.00   0.00   6.87    -0.87
  O        2     1.87   5.00   0.00   0.00   6.87    -0.87
  O        3     1.87   5.00   0.00   0.00   6.87    -0.87
  O        4     1.87   5.00   0.00   0.00   6.87    -0.87
  O        5     1.87   5.00   0.00   0.00   6.87    -0.87
  O        6     1.87   5.00   0.00   0.00   6.87    -0.87
  O        7     1.87   5.00   0.00   0.00   6.87    -0.87
  O        8     1.87   5.00   0.00   0.00   6.87    -0.87
  O        9     1.87   4.99   0.00   0.00   6.85    -0.85
  O       10     1.88   5.02   0.00   0.00   6.91    -0.91
  O       11     1.87   4.99   0.00   0.00   6.85    -0.85
  O       12     1.86   4.94   0.00   0.00   6.80    -0.80
  O       13     1.87   4.99   0.00   0.00   6.86    -0.86
  O       14     1.87   4.99   0.00   0.00   6.85    -0.85
  O       15     1.87   4.99   0.00   0.00   6.85    -0.85
  O       16     1.88   5.02   0.00   0.00   6.91    -0.91
  O       17     1.88   5.02   0.00   0.00   6.91    -0.91
  O       18     1.87   4.99   0.00   0.00   6.85    -0.85
  O       19     1.86   4.94   0.00   0.00   6.80    -0.80
  O       20     1.86   4.95   0.00   0.00   6.80    -0.80
  O       21     1.87   4.99   0.00   0.00   6.86    -0.86
  O       22     1.86   4.95   0.00   0.00   6.80    -0.80
  O       23     1.87   4.99   0.00   0.00   6.85    -0.85
  O       24     1.88   5.02   0.00   0.00   6.91    -0.91
  O       25     1.88   5.02   0.00   0.00   6.91    -0.91
  O       26     1.87   4.99   0.00   0.00   6.86    -0.86
  O       27     1.86   4.95   0.00   0.00   6.80    -0.80
  O       28     1.86   4.95   0.00   0.00   6.80    -0.80
  O       29     1.86   4.95   0.00   0.00   6.80    -0.80
  O       30     1.88   5.02   0.00   0.00   6.91    -0.91
  O       31     1.87   4.99   0.00   0.00   6.86    -0.86
  O       32     1.88   5.02   0.00   0.00   6.91    -0.91
  O       33     1.87   4.99   0.00   0.00   6.86    -0.86
  O       34     1.87   4.99   0.00   0.00   6.85    -0.85
  O       35     1.86   4.95   0.00   0.00   6.80    -0.80
  O       36     1.87   4.99   0.00   0.00   6.86    -0.86
  O       37     1.87   4.99   0.00   0.00   6.86    -0.86
  O       38     1.86   4.95   0.00   0.00   6.80    -0.80
  O       39     1.88   5.02   0.00   0.00   6.91    -0.91
  O       40     1.86   4.94   0.00   0.00   6.80    -0.80
  O       41     1.88   5.02   0.00   0.00   6.91    -0.91
  O       42     1.87   4.99   0.00   0.00   6.85    -0.85
  O       43     1.86   4.95   0.00   0.00   6.80    -0.80
  O       44     1.87   4.99   0.00   0.00   6.85    -0.85
  O       45     1.86   4.95   0.00   0.00   6.80    -0.80
  O       46     1.86   4.95   0.00   0.00   6.80    -0.80
  O       47     1.88   5.03   0.00   0.00   6.91    -0.91
  O       48     1.87   4.98   0.00   0.00   6.85    -0.85
  O       49     1.87   4.99   0.00   0.00   6.85    -0.85
  O       50     1.87   4.99   0.00   0.00   6.86    -0.86
  O       51     1.87   4.99   0.00   0.00   6.85    -0.85
  O       52     1.87   4.99   0.00   0.00   6.86    -0.86
  O       53     1.86   4.95   0.00   0.00   6.80    -0.80
  O       54     1.87   4.99   0.00   0.00   6.86    -0.86
  O       55     1.86   4.95   0.00   0.00   6.80    -0.80
  O       56     1.86   4.95   0.00   0.00   6.80    -0.80
  Zr       1     2.37   6.49   1.92   0.00  10.79     1.21
  Zr       2     2.37   6.47   1.93   0.00  10.77     1.23
  Zr       3     2.37   6.48   1.92   0.00  10.78     1.22
  Zr       4     2.37   6.47   1.93   0.00  10.77     1.23
  Zr       5     2.37   6.48   1.92   0.00  10.78     1.22
  Zr       6     2.37   6.47   1.93   0.00  10.77     1.23
  Zr       7     2.37   6.47   1.93   0.00  10.77     1.23
  Zr       8     2.37   6.47   1.93   0.00  10.77     1.23
  Zr       9     2.37   6.47   1.93   0.00  10.77     1.23
  Sn       1     1.05   1.32  10.00   0.00  12.36     1.64
  Sn       2     1.05   1.32  10.00   0.00  12.36     1.64
  Sn       3     1.05   1.32  10.00   0.00  12.36     1.64
  Sn       4     1.05   1.31  10.00   0.00  12.36     1.64
  Sn       5     1.05   1.31  10.00   0.00  12.36     1.64
  Sn       6     1.05   1.31  10.00   0.00  12.36     1.64
  Sn       7     1.05   1.32  10.00   0.00  12.36     1.64
  La       1     2.07   6.16   1.19   0.00   9.42     1.58
  La       2     2.08   6.17   1.19   0.00   9.44     1.56
  La       3     2.06   6.16   1.19   0.00   9.41     1.59
  La       4     2.04   6.16   1.19   0.00   9.39     1.61
  La       5     2.08   6.17   1.19   0.00   9.44     1.56
  La       6     2.04   6.16   1.19   0.00   9.39     1.61
  La       7     2.06   6.16   1.19   0.00   9.41     1.59
  La       8     2.10   6.19   1.19   0.00   9.48     1.52
  La       9     1.99   6.13   1.20   0.00   9.32     1.68
  La      10     2.08   6.18   1.19   0.00   9.45     1.55
  La      11     2.09   6.19   1.19   0.00   9.47     1.53
  La      12     2.07   6.18   1.19   0.00   9.44     1.56
  La      13     2.10   6.19   1.19   0.00   9.48     1.52
  La      14     2.07   6.18   1.19   0.00   9.44     1.56
  La      15     2.08   6.18   1.19   0.00   9.45     1.55
  La      16     2.06   6.15   1.19   0.00   9.40     1.60
==============================================================
 
            Bond              Population      Length (A)
============================================================
         O 50 -- Sn 5              0.35        2.10138
         O 52 -- Sn 6              0.35        2.10138
         O 33 -- Sn 4              0.35        2.10223
         O 21 -- Sn 4              0.35        2.10223
         O 47 -- Sn 2              0.34        2.10507
         O 47 -- Sn 1              0.34        2.10507
         O 11 -- Sn 4              0.35        2.10566
         O 15 -- Sn 4              0.35        2.10566
         O 16 -- Sn 7              0.34        2.10673
         O 41 -- Sn 7              0.34        2.10673
         O 54 -- Sn 3              0.35        2.10698
         O 30 -- Sn 5              0.34        2.10720
         O 30 -- Sn 6              0.34        2.10720
         O 13 -- Sn 5              0.35        2.10788
         O 9  -- Sn 6              0.35        2.10788
         O 36 -- Sn 7              0.34        2.10866
         O 26 -- Sn 7              0.34        2.10866
         O 16 -- Sn 2              0.34        2.10870
         O 41 -- Sn 1              0.34        2.10870
         O 39 -- Sn 1              0.34        2.10950
         O 10 -- Sn 2              0.34        2.10950
         O 31 -- Sn 2              0.34        2.10962
         O 37 -- Sn 1              0.34        2.10962
         O 17 -- Sn 3              0.34        2.10991
         O 44 -- Sn 6              0.34        2.11009
         O 18 -- Sn 5              0.34        2.11009
         O 39 -- Sn 3              0.33        2.11047
         O 10 -- Sn 3              0.33        2.11047
         O 14 -- Sn 6              0.34        2.11113
         O 42 -- Sn 5              0.34        2.11113
         O 49 -- Sn 1              0.34        2.11136
         O 51 -- Sn 2              0.34        2.11136
         O 35 -- Zr 2              0.42        2.11217
         O 28 -- Zr 4              0.42        2.11217
         O 53 -- Zr 3              0.42        2.11235
         O 53 -- Zr 5              0.42        2.11235
         O 23 -- Sn 2              0.34        2.11245
         O 34 -- Sn 1              0.34        2.11245
         O 22 -- Zr 7              0.42        2.11297
         O 27 -- Zr 9              0.42        2.11297
         O 29 -- Zr 4              0.42        2.11365
         O 38 -- Zr 2              0.42        2.11365
         O 20 -- Zr 4              0.42        2.11379
         O 43 -- Zr 2              0.42        2.11379
         O 29 -- Zr 8              0.42        2.11390
         O 38 -- Zr 6              0.42        2.11390
         O 20 -- Zr 6              0.42        2.11400
         O 43 -- Zr 8              0.42        2.11400
         O 48 -- Sn 4              0.33        2.11401
         O 24 -- Sn 3              0.33        2.11415
         O 25 -- Sn 3              0.33        2.11415
         O 24 -- Sn 6              0.33        2.11426
         O 25 -- Sn 5              0.33        2.11426
         O 19 -- Zr 7              0.43        2.11437
         O 19 -- Zr 9              0.43        2.11437
         O 28 -- Zr 7              0.43        2.11450
         O 35 -- Zr 9              0.43        2.11450
         O 46 -- Zr 3              0.43        2.11453
         O 55 -- Zr 5              0.43        2.11453
         O 55 -- Zr 2              0.42        2.11491
         O 46 -- Zr 4              0.42        2.11491
         O 56 -- Zr 1              0.43        2.11522
         O 45 -- Zr 1              0.43        2.11522
         O 17 -- Sn 7              0.33        2.11580
         O 40 -- Zr 3              0.43        2.11616
         O 12 -- Zr 5              0.43        2.11616
         O 27 -- Zr 6              0.43        2.11661
         O 22 -- Zr 8              0.43        2.11661
         O 56 -- Zr 7              0.42        2.11706
         O 45 -- Zr 9              0.42        2.11706
         O 32 -- Sn 4              0.33        2.11715
         O 52 -- Zr 1              0.44        2.11725
         O 50 -- Zr 1              0.44        2.11725
         O 32 -- Sn 7              0.33        2.11807
         O 12 -- Zr 8              0.43        2.11866
         O 40 -- Zr 6              0.43        2.11866
         O 21 -- Zr 5              0.44        2.12016
         O 33 -- Zr 3              0.44        2.12016
         O 48 -- Zr 1              0.45        2.12258
         O 15 -- Zr 9              0.45        2.12498
         O 11 -- Zr 7              0.45        2.12498
         O 13 -- Zr 8              0.45        2.12511
         O 9  -- Zr 6              0.45        2.12511
         O 18 -- Zr 5              0.45        2.12525
         O 44 -- Zr 3              0.45        2.12525
         O 34 -- Zr 8              0.45        2.12555
         O 23 -- Zr 6              0.45        2.12555
         O 36 -- Zr 3              0.44        2.12567
         O 26 -- Zr 5              0.44        2.12567
         O 14 -- Zr 4              0.45        2.12608
         O 42 -- Zr 2              0.45        2.12608
         O 31 -- Zr 9              0.45        2.12692
         O 37 -- Zr 7              0.45        2.12692
         O 54 -- Zr 1              0.44        2.12791
         O 49 -- Zr 4              0.45        2.12968
         O 51 -- Zr 2              0.45        2.12968
         O 6  -- La 9              0.18        2.35720
         O 4  -- La 9              0.19        2.35775
         O 5  -- La 6              0.16        2.35839
         O 8  -- La 4              0.16        2.35839
         O 2  -- La 7              0.18        2.35861
         O 3  -- La 3              0.18        2.35861
         O 7  -- La 16             0.16        2.35870
         O 1  -- La 1              0.17        2.35873
         O 6  -- La 1              0.18        2.35986
         O 7  -- La 3              0.19        2.35999
         O 7  -- La 7              0.19        2.35999
         O 4  -- La 16             0.18        2.36001
         O 2  -- La 12             0.16        2.36026
         O 3  -- La 14             0.16        2.36026
         O 5  -- La 15             0.17        2.36039
         O 8  -- La 10             0.17        2.36039
         O 4  -- La 4              0.19        2.36070
         O 4  -- La 6              0.19        2.36070
         O 1  -- La 10             0.18        2.36087
         O 1  -- La 15             0.18        2.36087
         O 2  -- La 2              0.18        2.36135
         O 3  -- La 5              0.18        2.36135
         O 6  -- La 14             0.18        2.36165
         O 6  -- La 12             0.18        2.36165
         O 8  -- La 5              0.18        2.36171
         O 5  -- La 2              0.18        2.36171
         O 5  -- La 8              0.17        2.36201
         O 8  -- La 13             0.17        2.36201
         O 2  -- La 13             0.17        2.36223
         O 3  -- La 8              0.17        2.36223
         O 1  -- La 11             0.16        2.36247
         O 7  -- La 11             0.18        2.36328
         O 35 -- La 16             0.11        2.66924
         O 28 -- La 16             0.11        2.66924
         O 27 -- La 12             0.13        2.66963
         O 22 -- La 14             0.13        2.66963
         O 30 -- La 16             0.22        2.67104
         O 19 -- La 16             0.11        2.67116
         O 21 -- La 8              0.19        2.67121
         O 33 -- La 13             0.19        2.67121
         O 53 -- La 1              0.13        2.67134
         O 47 -- La 11             0.22        2.67155
         O 41 -- La 12             0.22        2.67165
         O 16 -- La 14             0.22        2.67165
         O 10 -- La 13             0.23        2.67178
         O 39 -- La 8              0.23        2.67178
         O 47 -- La 1              0.23        2.67192
         O 43 -- La 14             0.12        2.67195
         O 20 -- La 12             0.12        2.67195
         O 46 -- La 1              0.12        2.67212
         O 55 -- La 1              0.12        2.67212
         O 12 -- La 6              0.13        2.67227
         O 40 -- La 4              0.13        2.67227
         O 50 -- La 4              0.17        2.67253
         O 52 -- La 6              0.17        2.67253
         O 29 -- La 15             0.14        2.67259
         O 38 -- La 10             0.14        2.67259
         O 19 -- La 9              0.12        2.67263
         O 45 -- La 5              0.14        2.67272
         O 56 -- La 2              0.14        2.67272
         O 53 -- La 9              0.11        2.67275
         O 55 -- La 10             0.14        2.67291
         O 46 -- La 15             0.14        2.67291
         O 42 -- La 16             0.17        2.67329
         O 14 -- La 16             0.17        2.67329
         O 12 -- La 9              0.11        2.67340
         O 40 -- La 9              0.11        2.67340
         O 27 -- La 9              0.11        2.67377
         O 22 -- La 9              0.11        2.67377
         O 30 -- La 11             0.23        2.67385
         O 52 -- La 2              0.18        2.67446
         O 50 -- La 5              0.18        2.67446
         O 38 -- La 4              0.12        2.67459
         O 29 -- La 6              0.12        2.67459
         O 25 -- La 8              0.24        2.67461
         O 24 -- La 13             0.24        2.67461
         O 17 -- La 15             0.24        2.67482
         O 17 -- La 10             0.24        2.67482
         O 43 -- La 3              0.14        2.67482
         O 20 -- La 7              0.14        2.67482
         O 41 -- La 2              0.23        2.67527
         O 16 -- La 5              0.23        2.67527
         O 15 -- La 13             0.18        2.67544
         O 11 -- La 8              0.18        2.67544
         O 10 -- La 7              0.24        2.67584
         O 39 -- La 3              0.24        2.67584
         O 54 -- La 7              0.18        2.67584
         O 54 -- La 3              0.18        2.67584
         O 35 -- La 3              0.14        2.67587
         O 28 -- La 7              0.14        2.67587
         O 32 -- La 12             0.24        2.67604
         O 32 -- La 14             0.24        2.67604
         O 34 -- La 11             0.18        2.67615
         O 23 -- La 11             0.18        2.67615
         O 9  -- La 11             0.18        2.67625
         O 13 -- La 11             0.18        2.67625
         O 45 -- La 3              0.13        2.67645
         O 56 -- La 7              0.13        2.67645
         O 48 -- La 6              0.18        2.67689
         O 48 -- La 4              0.18        2.67689
         O 18 -- La 8              0.19        2.67719
         O 44 -- La 13             0.19        2.67719
         O 49 -- La 1              0.19        2.67742
         O 51 -- La 1              0.19        2.67742
         O 26 -- La 5              0.19        2.67751
         O 36 -- La 2              0.19        2.67751
         O 31 -- La 13             0.19        2.67802
         O 37 -- La 8              0.19        2.67802
         O 21 -- La 6              0.17        2.67806
         O 33 -- La 4              0.17        2.67806
         O 25 -- La 15             0.25        2.67811
         O 24 -- La 10             0.25        2.67811
         O 15 -- La 12             0.18        2.67814
         O 11 -- La 14             0.18        2.67814
         O 51 -- La 14             0.18        2.67868
         O 49 -- La 12             0.18        2.67868
         O 36 -- La 15             0.18        2.67924
         O 26 -- La 10             0.18        2.67924
         O 42 -- La 4              0.18        2.68008
         O 14 -- La 6              0.18        2.68008
         O 13 -- La 15             0.19        2.68139
         O 9  -- La 10             0.19        2.68139
         O 23 -- La 7              0.19        2.68207
         O 34 -- La 3              0.19        2.68207
         O 18 -- La 5              0.19        2.68213
         O 44 -- La 2              0.19        2.68213
         O 37 -- La 2              0.19        2.68406
         O 31 -- La 5              0.19        2.68406
         O 30 -- O 42             -0.06        2.79565
         O 14 -- O 30             -0.06        2.79565
         O 47 -- O 49             -0.06        2.79650
         O 47 -- O 51             -0.06        2.79650
         O 10 -- O 54             -0.06        2.79692
         O 39 -- O 54             -0.06        2.79692
         O 42 -- O 50             -0.06        2.79767
         O 14 -- O 52             -0.06        2.79767
         O 34 -- O 47             -0.06        2.79850
         O 23 -- O 47             -0.06        2.79850
         O 10 -- O 31             -0.06        2.79922
         O 37 -- O 39             -0.06        2.79922
         O 32 -- O 41             -0.05        2.79969
         O 16 -- O 32             -0.05        2.79969
         O 41 -- O 49             -0.06        2.79975
         O 16 -- O 51             -0.06        2.79975
         O 16 -- O 26             -0.06        2.80036
         O 36 -- O 41             -0.06        2.80036
         O 13 -- O 30             -0.06        2.80061
         O 9  -- O 30             -0.06        2.80061
         O 10 -- O 24             -0.05        2.80072
         O 25 -- O 39             -0.05        2.80072
         O 17 -- O 25             -0.05        2.80102
         O 17 -- O 24             -0.05        2.80102
         O 11 -- O 21             -0.06        2.80112
         O 15 -- O 33             -0.06        2.80112
         O 33 -- O 48             -0.06        2.80222
         O 21 -- O 48             -0.06        2.80222
         O 18 -- O 50             -0.06        2.80398
         O 44 -- O 52             -0.06        2.80398
         O 17 -- O 36             -0.06        2.80547
         O 17 -- O 26             -0.06        2.80547
         O 18 -- O 25             -0.06        2.80616
         O 24 -- O 44             -0.06        2.80616
         O 16 -- O 31             -0.06        2.80655
         O 37 -- O 41             -0.06        2.80655
         O 10 -- O 23             -0.06        2.80699
         O 34 -- O 39             -0.06        2.80699
         O 11 -- O 32             -0.06        2.80843
         O 15 -- O 32             -0.06        2.80843
         O 40 -- O 53             -0.04        2.80904
         O 12 -- O 53             -0.04        2.80904
         O 19 -- O 35             -0.04        2.80980
         O 19 -- O 28             -0.04        2.80980
         O 13 -- O 25             -0.05        2.81029
         O 9  -- O 24             -0.05        2.81029
         O 19 -- O 22             -0.03        2.81037
         O 19 -- O 27             -0.03        2.81037
         O 46 -- O 53             -0.03        2.81147
         O 53 -- O 55             -0.03        2.81147
         O 38 -- O 40             -0.03        2.81317
         O 12 -- O 29             -0.03        2.81317
         O 20 -- O 27             -0.03        2.81422
         O 22 -- O 43             -0.03        2.81422
         O 35 -- O 43             -0.03        2.81588
         O 20 -- O 28             -0.03        2.81588
         O 38 -- O 55             -0.03        2.81631
         O 29 -- O 46             -0.03        2.81631
         O 27 -- O 40             -0.03        2.81659
         O 12 -- O 22             -0.03        2.81659
         O 12 -- O 21             -0.03        2.81853
         O 33 -- O 40             -0.03        2.81853
         O 35 -- O 42             -0.03        2.81866
         O 14 -- O 28             -0.03        2.81866
         O 45 -- O 50             -0.03        2.82043
         O 52 -- O 56             -0.03        2.82043
         O 48 -- O 52             -0.03        2.82125
         O 48 -- O 50             -0.03        2.82125
         O 28 -- O 56             -0.03        2.82126
         O 35 -- O 45             -0.03        2.82126
         O 15 -- O 27             -0.03        2.82272
         O 11 -- O 22             -0.03        2.82272
         O 54 -- O 56             -0.03        2.82441
         O 45 -- O 54             -0.03        2.82441
         O 14 -- O 29             -0.03        2.82601
         O 38 -- O 42             -0.03        2.82601
         O 18 -- O 21             -0.03        2.82710
         O 33 -- O 44             -0.03        2.82710
         O 46 -- O 49             -0.03        2.82711
         O 51 -- O 55             -0.03        2.82711
         O 20 -- O 49             -0.03        2.82728
         O 43 -- O 51             -0.03        2.82728
         O 36 -- O 46             -0.03        2.82899
         O 26 -- O 55             -0.03        2.82899
         O 20 -- O 23             -0.03        2.82912
         O 34 -- O 43             -0.03        2.82912
         O 37 -- O 56             -0.03        2.82932
         O 31 -- O 45             -0.03        2.82932
         O 13 -- O 29             -0.03        2.82988
         O 9  -- O 38             -0.03        2.82988
         O 15 -- O 31             -0.03        2.83597
         O 11 -- O 37             -0.03        2.83597
         O 36 -- O 44             -0.03        2.83635
         O 18 -- O 26             -0.03        2.83635
         O 13 -- O 34             -0.03        2.83778
         O 9  -- O 23             -0.03        2.83778
============================================================
 
Initialisation time =     25.42 s
Calculation time    =   2727.41 s
Finalisation time   =      0.13 s
Total time          =   2752.95 s
Peak Memory Use     = 3671688 kB
  
Overall parallel efficiency rating: Good (71%)                                  
  
Data was distributed by:-
G-vector (64-way); efficiency rating: Good (74%)                                
k-point (14-way); efficiency rating: Excellent (93%)                            
