 +-------------------------------------------------+
 |                                                 |
 |      CCC   AA    SSS  TTTTT  EEEEE  PPPP        |
 |     C     A  A  S       T    E      P   P       |
 |     C     AAAA   SS     T    EEE    PPPP        |
 |     C     A  A     S    T    E      P           |
 |      CCC  A  A  SSS     T    EEEEE  P           |
 |                                                 |
 +-------------------------------------------------+
 |                                                 |
 | Welcome to Academic Release CASTEP version 16.11|          
 | Ab Initio Total Energy Program                  |
 |                                                 |
 | Authors:                                        |
 | M. Segall, M. Probert, C. Pickard, P. Hasnip,   |
 | S. Clark, K. Refson, J. R. Yates, M. Payne      |
 |                                                 |
 | Contributors:                                   |
 | P. Lindan, P. Haynes, J. White, V. Milman,      |
 | N. Govind, M. Gibson, P. Tulip, V. Cocula,      |
 | B. Montanari, D. Quigley, M. Glover,            |
 | L. Bernasconi, A. Perlov, M. Plummer,           |
 | E. McNellis, J. Meyer, J. Gale, D. Jochym       |
 | J. Aarons, B. Walker, R. Gillen, D. Jones       |
 | T. Green, I. J. Bush, C. J. Armstrong,          |
 | E. J. Higgins, E. L. Brown, M. S. McFly         |
 |                                                 |
 | Copyright (c) 2000 - 2015                       |
 |                                                 |
 |     Distributed under the terms of an           |
 |     Agreement between the United Kingdom        |
 |     Car-Parrinello (UKCP) Consortium,           |
 |     Daresbury Laboratory and Accelrys, Inc.     |
 |                                                 |
 | Please cite                                     |
 |                                                 |
 |     "First principles methods using CASTEP"     |
 |                                                 |
 |         Zeitschrift fuer Kristallographie       |
 |           220(5-6) pp. 567-570 (2005)           |
 |                                                 |
 | S. J. Clark, M. D. Segall, C. J. Pickard,       |
 | P. J. Hasnip, M. J. Probert, K. Refson,         |
 | M. C. Payne                                     |
 |                                                 |
 |       in all publications arising from          |
 |              your use of CASTEP                 |
 |                                                 |
 +-------------------------------------------------+
 
 
 Compiled for linux_x86_64_ifort16 on Sat, 23 Jul 2016 23:44:54 +0100
 from code version 
 203e84763863+ Castep161_branch Fri, 04 Mar 2016 19:21:07 +0000
 Compiler: Intel Fortran 16.0.3.210; Optimisation: fast
 MATHLIBS: Intel MKL(11.3.3) (LAPACK version 3.6.0)
 FFT Lib : mkl
 Fundamental constants values: CODATA 2010
 
 Run started: Sat, 24 Feb 2018 07:03:12 +0000
 +-------------------------------------------------+
 |                                                 |
 |           N   N    M   M    RRRR                |
 |           NN  N    MM MM    R   R               |
 |           N N N    M M M    RRRR                |
 |           N  NN    M   M    R  R                |
 |           N   N    M   M    R   R               |
 |                                                 |
 +-------------------------------------------------+
 |                                                 |
 | Welcome to Materials Studio CASTEP-NMR          |
 |                                                 |
 | Authors:                                        |
 | J.R. Yates, C.J. Pickard, F. Mauri              |
 |                                                 |
 | Contributors:                                   |
 | T.F.G. Green, S.A. Joyce                        |
 |                                                 |
 | Copyright (c) 2004 - 2015                       |
 |                                                 |
 | Please cite the appropriate publications in all |
 | work arising from your use of CASTEP NMR.       |
 |                                                 |
 | For NMR Shielding Tensors cite:                 |
 |    "All-electron magnetic response with         |
 |    pseudopotentials: NMR chemical shifts",      |
 |    C. J. Pickard, F. Mauri;                     |
 |    Physical Review B63 245101 (2001), and       |
 |                                                 |
 |    "Calculation of NMR Chemical Shifts          |
 |    for extended systems using                   |
 |    Ultrasoft Pseudopotentials",                 |
 |    J. R. Yates, C. J. Pickard and F. Mauri      |
 |    Physical Review B76 024401 (2007)            |
 |                                                 |
 | For Electric Field Gradients cite:              |
 |   "Accurate First Principles Prediction of 17O  |
 |    NMR Parameters in SiO2: Assignment of the    |
 |    Zeolite Ferrierite Spectrum"                 |
 |    M. Profeta, F. Mauri and C. J. Pickard       |
 |    J. Amer. Chem. Soc. 125 541 (2003)           |
 |                                                 |
 | For Spin-Spin (J) Couplings cite:               |
 |   "A first principles theory of NMR J-coupling  |
 |   in solid-state systems"                       |
 |   S.A. Joyce, J.R. Yates, C.J. Pickard, F. Mauri|
 |   J. Chem. Phys. 127 204107 (2007)              |
 |                                                 |
 |   "Relativistic NMR J-coupling with ultrasoft   |
 |   pseudopotentials and the zeroth-order regular |
 |   approximation"                                |
 |   T.F.G. Green and J.R. Yates                   |
 |   J. Chem. Phys. 140 234106 (2014)              |
 |                                                 |
 +-------------------------------------------------+
 
 
 Atomic calculation performed for O: 1s2 2s2 2p4
 
 Converged in 44 iterations to an ae energy of -2040.855 eV
 
 
 Atomic calculation performed for O: 1s2 2s2 2p4
 
 Exceeded max iterations: converged to 0.000000062 eV
 
   ============================================================                
   | Pseudopotential Report - Date of generation 24-02-2018   |                
   ------------------------------------------------------------                
   | Element: O Ionic charge:  6.00 Level of theory: PBE      |                
   | Atomic Solver: ZORA (scalar)                             |                
   |                                                          |                
   |               Reference Electronic Structure             |                
   |         Orbital         Occupation         Energy        |                
   |            2s              2.000           -0.881        |                
   |            2p              4.000           -0.332        |                
   |                                                          |                
   |                 Pseudopotential Definition               |                
   |        Beta     l      e      Rc     scheme   norm       |                
   |          1      0   -0.881   1.100     qc      0         |                
   |          2      0    0.250   1.100     qc      0         |                
   |          3      1   -0.332   1.100     qc      0         |                
   |          4      1    0.250   1.100     qc      0         |                
   |         loc     2    0.000   1.100     pn      0         |                
   |                                                          |                
   | Augmentation charge Rinner = 0.769                       |                
   | Partial core correction Rc = 0.769                       |                
   ------------------------------------------------------------                
   | "2|1.1|15|18|20|20:21(qc=7)"                             |                
   ------------------------------------------------------------                
   |      Author: Chris J. Pickard, Cambridge University      |                
   ============================================================                
 
 Atomic calculation performed for Zr: 1s2 2s2 2p6 3s2 3p6 3d10 4s2 4p6 4d2 5s2
 
 Converged in 53 iterations to an ae energy of -97719.888 eV
 
 
 Atomic calculation performed for Zr: 1s2 2s2 2p6 3s2 3p6 3d10 4s2 4p6 4d2 5s2
 
 Exceeded max iterations: converged to 0.000000970 eV
 
 Warning: ion_atom_descreen_psp: negative charge density encountered
   ============================================================                
   | Pseudopotential Report - Date of generation 24-02-2018   |                
   ------------------------------------------------------------                
   | Element: Zr Ionic charge: 12.00 Level of theory: PBE     |                
   | Atomic Solver: ZORA (scalar)                             |                
   |                                                          |                
   |               Reference Electronic Structure             |                
   |         Orbital         Occupation         Energy        |                
   |            4s              2.000           -2.003        |                
   |            4p              6.000           -1.193        |                
   |            5s              2.000           -0.163        |                
   |            4d              2.000           -0.132        |                
   |                                                          |                
   |                 Pseudopotential Definition               |                
   |        Beta     l      e      Rc     scheme   norm       |                
   |          1      0   -2.003   2.105     qc      0         |                
   |          2      0   -0.163   2.105     qc      0         |                
   |          3      0    0.250   2.105     qc      0         |                
   |          4      1   -1.193   2.105     qc      0         |                
   |          5      1    0.250   2.105     qc      0         |                
   |          6      2   -0.132   2.105     qc      0         |                
   |          7      2    0.250   2.105     qc      0         |                
   |         loc     3    0.000   2.105     pn      0         |                
   |                                                          |                
   | Augmentation charge Rinner = 1.471                       |                
   | Partial core correction Rc = 1.471                       |                
   ------------------------------------------------------------                
   | "3|2.1|7|8|9|40U:50:41:42"                               |                
   ------------------------------------------------------------                
   |      Author: Chris J. Pickard, Cambridge University      |                
   ============================================================                
 
 Atomic calculation performed for Sn:
 1s2 2s2 2p6 3s2 3p6 3d10 4s2 4p6 4d10 5s2 5p2
 
 Converged in 58 iterations to an ae energy of -167539.320 eV
 
 
 Atomic calculation performed for Sn:
 1s2 2s2 2p6 3s2 3p6 3d10 4s2 4p6 4d10 5s2 5p2
 
 Exceeded max iterations: converged to 0.000001154 eV
 
   ============================================================                
   | Pseudopotential Report - Date of generation 24-02-2018   |                
   ------------------------------------------------------------                
   | Element: Sn Ionic charge: 14.00 Level of theory: PBE     |                
   | Atomic Solver: ZORA (scalar)                             |                
   |                                                          |                
   |               Reference Electronic Structure             |                
   |         Orbital         Occupation         Energy        |                
   |            4d             10.000           -0.950        |                
   |            5s              2.000           -0.388        |                
   |            5p              2.000           -0.136        |                
   |                                                          |                
   |                 Pseudopotential Definition               |                
   |        Beta     l      e      Rc     scheme   norm       |                
   |          1      0   -0.388   2.199     qc      0         |                
   |          2      0    0.250   2.199     qc      0         |                
   |          3      1   -0.136   2.199     qc      0         |                
   |          4      1    0.250   2.199     qc      0         |                
   |          5      2   -0.950   2.199     qc      0         |                
   |          6      2    0.250   2.199     qc      0         |                
   |         loc     3    0.000   2.199     pn      0         |                
   |                                                          |                
   | Augmentation charge Rinner = 1.537                       |                
   | Partial core correction Rc = 1.537                       |                
   ------------------------------------------------------------                
   | "3|2.2|7|8|9|50:51:42"                                   |                
   ------------------------------------------------------------                
   |      Author: Chris J. Pickard, Cambridge University      |                
   ============================================================                
 
 Atomic calculation performed for La:
 1s2 2s2 2p6 3s2 3p6 3d10 4s2 4p6 4d10 5s2 5p6 5d1 6s2
 
 Converged in 56 iterations to an ae energy of -230121.495 eV
 
 
 Atomic calculation performed for La:
 1s2 2s2 2p6 3s2 3p6 3d10 4s2 4p6 4d10 5s2 5p6 5d1 6s2
 
 Exceeded max iterations: converged to 0.000000907 eV
 
 Warning: ion_atom_descreen_psp: negative charge density encountered
   ============================================================                
   | Pseudopotential Report - Date of generation 24-02-2018   |                
   ------------------------------------------------------------                
   | Element: La Ionic charge: 11.00 Level of theory: PBE     |                
   | Atomic Solver: ZORA (scalar)                             |                
   |                                                          |                
   |               Reference Electronic Structure             |                
   |         Orbital         Occupation         Energy        |                
   |            5s              2.000           -1.430        |                
   |            5p              6.000           -0.823        |                
   |            6s              2.000           -0.135        |                
   |            5d              1.000           -0.114        |                
   |                                                          |                
   |                 Pseudopotential Definition               |                
   |        Beta     l      e      Rc     scheme   norm       |                
   |          1      0   -1.430   2.298     qc      0         |                
   |          2      0   -0.135   2.298     qc      0         |                
   |          3      0    0.250   2.298     qc      0         |                
   |          4      1   -0.823   2.298     qc      0         |                
   |          5      1    0.250   2.298     qc      0         |                
   |          6      2   -0.114   2.298     qc      0         |                
   |          7      2    0.250   2.298     qc      0         |                
   |         loc     2    0.000   2.298     pn      0         |                
   |                                                          |                
   | Augmentation charge Rinner = 1.606                       |                
   | Partial core correction Rc = 1.606                       |                
   ------------------------------------------------------------                
   | "2|2.3|5|6|7|50U:60:51:52(qc=4.5)"                       |                
   ------------------------------------------------------------                
   |      Author: Chris J. Pickard, Cambridge University      |                
   ============================================================                
 
 Pseudo atomic calculation performed for O 2s2 2p4
 
 Converged in 39 iterations to a total energy of -432.6554 eV
 
 
 Pseudo atomic calculation performed for Zr 4s2 4p6 4d2 5s2
 
 Converged in 38 iterations to a total energy of -1285.4931 eV
 
 
 Pseudo atomic calculation performed for Sn 4d10 5s2 5p2
 
 Converged in 48 iterations to a total energy of -2044.5414 eV
 
 
 Pseudo atomic calculation performed for La 5s2 5p6 5d1 6s2
 
 Converged in 34 iterations to a total energy of -968.0372 eV
 
 Calculation parallelised over 56 processes.
 Data is distributed by G-vector(4-way) and k-point(14-way)

 ************************************ Title ************************************
 nmr testing

 ***************************** General Parameters ******************************
  
 output verbosity                               : normal  (1)
 write checkpoint data to                       : 05.check
 type of calculation                            : Magnetic Resonance
 stress calculation                             : on
 density difference calculation                 : off
 electron localisation func (ELF) calculation   : off
 Hirshfeld analysis                             : off
 unlimited duration calculation
 timing information                             : on
 memory usage estimate                          : on
 write final potential to formatted file        : off
 write final density to formatted file          : off
 write structure in CIF formatted file          : on
 write structure in CELL formatted file         : on
 write BibTeX reference list                    : on
 write OTFG pseudopotential files               : on
 checkpoint writing                             : both castep_bin and check files
  
 output         length unit                     : A
 output           mass unit                     : amu
 output           time unit                     : ps
 output         charge unit                     : e
 output           spin unit                     : hbar/2
 output         energy unit                     : eV
 output          force unit                     : eV/A
 output       velocity unit                     : A/ps
 output       pressure unit                     : GPa
 output     inv_length unit                     : 1/A
 output      frequency unit                     : cm-1
 output force constant unit                     : eV/A**2
 output         volume unit                     : A**3
 output   IR intensity unit                     : (D/A)**2/amu
 output         dipole unit                     : D
 output         efield unit                     : eV/A/e
 output        entropy unit                     : J/mol/K
  
 wavefunctions paging                           : none
 random number generator seed                   : randomised (70313942)
 data distribution                              : optimal for this architecture
 optimization strategy                          : maximize speed(+++)

 *********************** Exchange-Correlation Parameters ***********************
  
 using functional                               : Perdew Burke Ernzerhof
 relativistic treatment                         : ZORA
 DFT+D: Semi-empirical dispersion correction    : off

 ************************* Pseudopotential Parameters **************************
  
 pseudopotential representation                 : reciprocal space
 <beta|phi> representation                      : reciprocal space
 spin-orbit coupling                            : off

 **************************** Basis Set Parameters *****************************
  
 plane wave basis set cut-off                   :   816.3416   eV
 size of standard grid                          :     1.7500
 size of   fine   gmax                          :    25.6161   1/A
 finite basis set correction                    : automatic
 number of sample energies                      :          3
           sample  spacing                      :     5.0000   eV

 **************************** Electronic Parameters ****************************
  
 number of  electrons                           :  728.0    
 net charge of system                           :  0.000    
 treating system as non-spin-polarized
 number of bands                                :        437

 ********************* Electronic Minimization Parameters **********************
  
 Method: Treating system as metallic with density mixing treatment of electrons,
         and number of  SD  steps               :          1
         and number of  CG  steps               :          4
  
 total energy / atom convergence tol.           : 0.1000E-08   eV
 eigen-energy convergence tolerance             : 0.2418E-09   eV
 max force / atom convergence tol.              : ignored
 convergence tolerance window                   :          3   cycles
 max. number of SCF cycles                      :         50
 number of fixed-spin iterations                :         10
 smearing scheme                                : Gaussian
 smearing width                                 : 0.2000       eV
 Fermi energy convergence tolerance             : 0.2721E-13   eV
 periodic dipole correction                     : NONE

 ************************** Density Mixing Parameters **************************
  
 density-mixing scheme                          : Broyden
 max. length of mixing history                  :         20
 charge density mixing amplitude                : 0.8000    
 cut-off energy for mixing                      :  816.3       eV

 *********************** Population Analysis Parameters ************************
  
 Population analysis with cutoff                :  3.000       A

 ************************ Magnetic Resonance Parameters ************************
  
 Magnetic Resonance Property                    : Chemical Shielding + EFG
 Position Operator Method                       : crystal
 max. number of MagRes CG steps                 :        250
 convergence tolerance window                   :          2   cycles
 energy convergence tolerance                   : 0.1000E-11   eV
 band convergence tolerance                     : 0.1000E-08   eV

 *******************************************************************************
  
 
                           -------------------------------
                                      Unit Cell
                           -------------------------------
        Real Lattice(A)                      Reciprocal Lattice(1/A)
  10.8878349   0.0104646   0.0000085        0.5770836  -0.0005546  -0.0000004
   0.0104634  10.8881274   0.0002504       -0.0005546   0.5770681  -0.0000133
   0.0000081   0.0002507  10.8917300       -0.0000004  -0.0000133   0.5768767
 
                       Lattice parameters(A)       Cell Angles
                    a =   10.887840          alpha =   89.997363
                    b =   10.888132          beta  =   89.999911
                    c =   10.891730          gamma =   89.889871
 
                       Current cell volume = 1291.193069       A**3
 
                           -------------------------------
                                     Cell Contents
                           -------------------------------
                         Total number of ions in cell =   88
                      Total number of species in cell =    4
                        Max number of any one species =   56
 
            xxxxxxxxxxxxxxxxxxxxxxxxxxxxxxxxxxxxxxxxxxxxxxxxxxxxxxxxxxxx
            x  Element    Atom        Fractional coordinates of atoms  x
            x            Number           u          v          w      x
            x----------------------------------------------------------x
            x  O            1         0.125049   0.124761   0.124637   x 
            x  O            2         0.624910   0.125266   0.625195   x 
            x  O            3         0.125330   0.624974   0.625169   x 
            x  O            4         0.624703   0.625019   0.124884   x 
            x  O            5         0.874670   0.375026   0.374831   x 
            x  O            6         0.874951   0.875239   0.875363   x 
            x  O            7         0.375297   0.374981   0.875116   x 
            x  O            8         0.375090   0.874734   0.374805   x 
            x  O            9         0.420789   0.126094   0.125373   x 
            x  O           10         0.330368   0.124708   0.624169   x 
            x  O           11         0.830875   0.625222   0.624926   x 
            x  O           12         0.919298   0.625419   0.124823   x 
            x  O           13         0.125265   0.419371   0.124549   x 
            x  O           14         0.623585   0.329142   0.125187   x 
            x  O           15         0.625183   0.830628   0.624337   x 
            x  O           16         0.125143   0.919565   0.624213   x 
            x  O           17         0.124766   0.124838   0.418979   x 
            x  O           18         0.124402   0.624766   0.330108   x 
            x  O           19         0.625746   0.625274   0.829878   x 
            x  O           20         0.625009   0.125135   0.919857   x 
            x  O           21         0.875269   0.669439   0.375318   x 
            x  O           22         0.874735   0.580629   0.875451   x 
            x  O           23         0.373760   0.079230   0.874445   x 
            x  O           24         0.374817   0.169372   0.375663   x 
            x  O           25         0.169125   0.374778   0.375074   x 
            x  O           26         0.080510   0.874760   0.375531   x 
            x  O           27         0.579211   0.873906   0.874627   x 
            x  O           28         0.670488   0.376514   0.875183   x 
            x  O           29         0.875537   0.375672   0.079382   x 
            x  O           30         0.374254   0.374726   0.170122   x 
            x  O           31         0.375314   0.875621   0.669552   x 
            x  O           32         0.875234   0.875162   0.581021   x 
            x  O           33         0.669632   0.875292   0.375831   x 
            x  O           34         0.080702   0.374581   0.875177   x 
            x  O           35         0.376415   0.670858   0.874813   x 
            x  O           36         0.874857   0.080435   0.375787   x 
            x  O           37         0.875598   0.375234   0.669892   x 
            x  O           38         0.374991   0.874865   0.080143   x 
            x  O           39         0.124731   0.330561   0.624682   x 
            x  O           40         0.626240   0.920770   0.125555   x 
            x  O           41         0.919490   0.125240   0.624469   x 
            x  O           42         0.329512   0.623486   0.124817   x 
            x  O           43         0.124463   0.624328   0.920618   x 
            x  O           44         0.624686   0.124379   0.330448   x 
            x  O           45         0.420667   0.626007   0.624999   x 
            x  O           46         0.829049   0.124024   0.125866   x 
            x  O           47         0.125177   0.125564   0.829971   x 
            x  O           48         0.625782   0.625640   0.420377   x 
            x  O           49         0.876146   0.170574   0.874527   x 
            x  O           50         0.373867   0.579348   0.374756   x 
            x  O           51         0.170951   0.875976   0.874134   x 
            x  O           52         0.579333   0.373993   0.375001   x 
            x  O           53         0.874823   0.874436   0.170029   x 
            x  O           54         0.374218   0.374360   0.579623   x 
            x  O           55         0.123854   0.829426   0.125473   x 
            x  O           56         0.626133   0.420652   0.625244   x 
            x  Zr           1         0.500000   0.500000   0.500000   x 
            x  Zr           2         0.249961   0.749656   0.000203   x 
            x  Zr           3         0.750039   0.250344   0.999797   x 
            x  Zr           4         0.500000  -0.000000  -0.000000   x 
            x  Sn           1         0.750884   0.998851   0.251475   x 
            x  Sn           2         0.000625   0.249675   0.749468   x 
            x  Sn           3         0.249116   0.001149   0.748525   x 
            x  Sn           4         0.999375   0.750325   0.250532   x 
            x  Sn           5         0.249250   0.249408   0.500258   x 
            x  Sn           6         0.750404   0.500320   0.750161   x 
            x  Sn           7         0.750750   0.750592   0.499742   x 
            x  Sn           8         0.249596   0.499680   0.249839   x 
            x  Sn           9         0.000000   0.500000   0.000000   x 
            x  Sn          10         0.499099   0.250212   0.250753   x 
            x  Sn          11         0.500901   0.749788   0.749247   x 
            x  Sn          12        -0.000000  -0.000000   0.500000   x 
            x  La           1        -0.000000  -0.000000   0.000000   x 
            x  La           2         0.749531   0.250399   0.500021   x 
            x  La           3         0.250458   0.500167   0.750057   x 
            x  La           4         0.499536   0.749842   0.249617   x 
            x  La           5         0.250469   0.749601   0.499979   x 
            x  La           6         0.749542   0.499833   0.249943   x 
            x  La           7         0.500464   0.250158   0.750383   x 
            x  La           8         0.000000   0.500000   0.500000   x 
            x  La           9         0.749754   0.750242   0.000116   x 
            x  La          10         0.250133   0.999420   0.249383   x 
            x  La          11         0.250246   0.249758   0.999884   x 
            x  La          12         0.749867   0.000580   0.750617   x 
            x  La          13         0.500000   0.000000   0.500000   x 
            x  La          14         0.000336   0.750141   0.750334   x 
            x  La          15         0.999664   0.249859   0.249666   x 
            x  La          16         0.500000   0.500000   0.000000   x 
            xxxxxxxxxxxxxxxxxxxxxxxxxxxxxxxxxxxxxxxxxxxxxxxxxxxxxxxxxxxx
 
 
                         No user defined ionic velocities
 
                           -------------------------------
                                   Details of Species
                           -------------------------------
 
                               Mass of species in AMU
                                    O   15.9994000
                                    Zr   91.2240000
                                    Sn  118.7100000
                                    La  138.9055000
 
                          Electric Quadrupole Moment (Barn)
                                    O   -0.0255800 Isotope 17
                                    Zr   -0.1760000 Isotope 91
                                    Sn    1.0000000 No Isotope Defined
                                    La    0.2000000 Isotope139
 
                          Files used for pseudopotentials:
                                    O 2|1.1|15|18|20|20:21(qc=7)
                                    Zr 3|2.1|7|8|9|40U:50:41:42
                                    Sn 3|2.2|7|8|9|50:51:42
                                    La 2|2.3|5|6|7|50U:60:51:52(qc=4.5)
 
                           -------------------------------
                              k-Points For BZ Sampling
                           -------------------------------
                       MP grid size for SCF calculation is  3  3  3
                            with an offset of   0.000  0.000  0.000
                       Number of kpoints used =            14
 
                           -------------------------------
                               Symmetry and Constraints
                           -------------------------------
 
                      Maximum deviation from symmetry =  0.00000         ANG
 
         There are no symmetry operations specified or generated for this cell
                      Number of ionic constraints     =           3
                      Point group of crystal =     1: C1, 1, 1
                      Space group of crystal =     2: P-1, -P 1
 
 
                         Centre of mass is constrained
             Set iprint > 1 for details of linear ionic constraints
 
                         Number of cell constraints= 0
                         Cell constraints are:  1 2 3 4 5 6
 
                         External pressure/stress (GPa)
                          0.00000   0.00000   0.00000
                                    0.00000   0.00000
                                              0.00000
  
+---------------- MEMORY AND SCRATCH DISK ESTIMATES PER PROCESS --------------+
|                                                     Memory          Disk    |
| Baseline code, static data and system overhead      322.0 MB         0.0 MB |
| BLAS internal memory storage                          0.0 MB         0.0 MB |
| Model and support data                             1318.3 MB         0.0 MB |
| Electronic energy minimisation requirements         384.7 MB         0.0 MB |
| Force calculation requirements                       24.1 MB         0.0 MB |
| Stress calculation requirements                      28.3 MB         0.0 MB |
|                                               ----------------------------- |
| Approx. total storage required per process         2025.0 MB         0.0 MB |
|                                                                             |
| Requirements will fluctuate during execution and may exceed these estimates |
+-----------------------------------------------------------------------------+
Calculating finite basis set correction with  3 cut-off energies.
Calculating total energy with cut-off of  806.342eV.
------------------------------------------------------------------------ <-- SCF
SCF loop      Energy           Fermi           Energy gain       Timer   <-- SCF
                               energy          per atom          (sec)   <-- SCF
------------------------------------------------------------------------ <-- SCF
Initial  -6.00188171E+004  0.00000000E+000                        75.32  <-- SCF
      1  -6.75442476E+004  7.32961700E+000   8.55162557E+001     216.31  <-- SCF
      2  -7.00826311E+004  6.14931241E+000   2.88452666E+001     309.15  <-- SCF
      3  -7.01672865E+004  5.89938520E+000   9.61993137E-001     411.64  <-- SCF
      4  -7.01570186E+004  7.41713980E+000  -1.16680284E-001     541.42  <-- SCF
      5  -7.00633749E+004  6.48371566E+000  -1.06413385E+000     667.40  <-- SCF
      6  -7.00644041E+004  6.38038272E+000   1.16957017E-002     837.18  <-- SCF
      7  -7.00639845E+004  6.45869398E+000  -4.76819138E-003     976.56  <-- SCF
      8  -7.00641017E+004  6.46475987E+000   1.33265149E-003    1158.19  <-- SCF
      9  -7.00641281E+004  6.46827950E+000   2.99154353E-004    1303.54  <-- SCF
     10  -7.00641251E+004  6.46807987E+000  -3.39859578E-005    1443.96  <-- SCF
     11  -7.00641259E+004  6.46951054E+000   9.71854707E-006    1584.54  <-- SCF
     12  -7.00641262E+004  6.47016751E+000   3.15266405E-006    1727.57  <-- SCF
     13  -7.00641262E+004  6.47011200E+000   3.98317638E-008    1863.49  <-- SCF
     14  -7.00641262E+004  6.47009849E+000  -2.21017326E-007    1996.65  <-- SCF
     15  -7.00641262E+004  6.46997362E+000  -3.94587066E-008    2140.68  <-- SCF
     16  -7.00641262E+004  6.46987957E+000  -7.55957559E-009    2262.68  <-- SCF
     17  -7.00641262E+004  6.46984382E+000  -7.79454678E-009    2380.86  <-- SCF
     18  -7.00641262E+004  6.46980002E+000   3.21731937E-010    2480.76  <-- SCF
     19  -7.00641262E+004  6.46978037E+000   2.89671237E-010    2572.17  <-- SCF
------------------------------------------------------------------------ <-- SCF
 
Final energy, E             =  -70064.12619388     eV
Final free energy (E-TS)    =  -70064.12619388     eV
(energies not corrected for finite basis set)
 
NB est. 0K energy (E-0.5TS)      =  -70064.12619388     eV
 
Calculating total energy with cut-off of  811.342eV.
------------------------------------------------------------------------ <-- SCF
SCF loop      Energy           Fermi           Energy gain       Timer   <-- SCF
                               energy          per atom          (sec)   <-- SCF
------------------------------------------------------------------------ <-- SCF
Initial  -7.00641262E+004  0.00000000E+000                      2607.84  <-- SCF
      1  -7.00641288E+004  6.46978001E+000   2.93832871E-005    2720.16  <-- SCF
      2  -7.00641288E+004  6.46978001E+000   2.20065770E-010    2809.68  <-- SCF
      3  -7.00641288E+004  6.46977229E+000   1.76648833E-008    2909.77  <-- SCF
      4  -7.00641288E+004  6.46978003E+000   2.63938307E-010    3008.03  <-- SCF
      5  -7.00641288E+004  6.46977897E+000  -3.99633814E-010    3095.25  <-- SCF
------------------------------------------------------------------------ <-- SCF
 
Final energy, E             =  -70064.12878115     eV
Final free energy (E-TS)    =  -70064.12878115     eV
(energies not corrected for finite basis set)
 
NB est. 0K energy (E-0.5TS)      =  -70064.12878115     eV
 
Calculating total energy with cut-off of  816.342eV.
------------------------------------------------------------------------ <-- SCF
SCF loop      Energy           Fermi           Energy gain       Timer   <-- SCF
                               energy          per atom          (sec)   <-- SCF
------------------------------------------------------------------------ <-- SCF
Initial  -7.00641288E+004  0.00000000E+000                      3130.83  <-- SCF
      1  -7.00641317E+004  6.46977069E+000   3.33399867E-005    3244.08  <-- SCF
      2  -7.00641317E+004  6.46977069E+000   2.40314633E-010    3331.93  <-- SCF
      3  -7.00641317E+004  6.46977200E+000   2.01075430E-008    3433.64  <-- SCF
      4  -7.00641317E+004  6.46977311E+000   3.19482064E-010    3530.97  <-- SCF
      5  -7.00641317E+004  6.46977381E+000  -4.72051623E-010    3619.60  <-- SCF
------------------------------------------------------------------------ <-- SCF
 
Final energy, E             =  -70064.13171683     eV
Final free energy (E-TS)    =  -70064.13171683     eV
(energies not corrected for finite basis set)
 
NB est. 0K energy (E-0.5TS)      =  -70064.13171683     eV
 
 For future reference: finite basis dEtot/dlog(Ecut) =      -0.443451eV
 Total energy corrected for finite basis set =  -70064.131713 eV
 
  =====================================================================
  +       Calculation of Nuclear Magnetic Resonance Parameters        +
  + ================================================================= +
 
  Starting Calculation of Electric Field Gradient Tensors         |<-- EFG
  +---------------- MEMORY AND SCRATCH DISK ESTIMATES PER PROCESS --------------+
  |                                                     Memory          Disk    |
  | Model and support data                             1316.0 MB         0.0 MB |
  | NMR EFG calculation requirements                    370.5 MB         0.0 MB |
  |                                               ----------------------------- |
  | Approx. total storage required per process         1686.5 MB         0.0 MB |
  |                                                                             |
  | Requirements will fluctuate during execution and may exceed these estimates |
  +-----------------------------------------------------------------------------+
  Total Time for EFG Tensors                     417.44 sec       |<-- EFG
 
  Starting Calculation of Chemical Shielding Tensors              |<-- NMR
  +---------------- MEMORY AND SCRATCH DISK ESTIMATES PER PROCESS --------------+
  |                                                     Memory          Disk    |
  | Model and support data                             1316.0 MB         0.0 MB |
  | NMR chemical shift calculation requirements         568.8 MB         0.0 MB |
  |                                               ----------------------------- |
  | Approx. total storage required per process         1884.9 MB         0.0 MB |
  |                                                                             |
  | Requirements will fluctuate during execution and may exceed these estimates |
  +-----------------------------------------------------------------------------+
  Starting k-point:   1 of   1                                    |<-- NMR
  Total Time for step 1 of 6:                   3368.91 sec       |<-- NMR
  Total Time for step 2 of 6:                   3362.47 sec       |<-- NMR
  Total Time for step 3 of 6:                   3344.54 sec       |<-- NMR
  Total Time for step 4 of 6:                   3351.54 sec       |<-- NMR
  Total Time for step 5 of 6:                   3379.54 sec       |<-- NMR
  Total Time for step 6 of 6:                   3345.29 sec       |<-- NMR
  Total Time for Chemical Shielding Tensors    29947.77 sec       |<-- NMR
 
  ========================================================================
  |           Chemical Shielding and Electric Field Gradient Tensors     |
  |----------------------------------------------------------------------|
  |     Nucleus                Shielding tensor             EFG Tensor   |
  |  Species       Ion    Iso(ppm)   Aniso(ppm)  Asym    Cq(MHz)    Eta  |
  |    O           1     -320.23      -9.62      0.33  -6.562E-02   0.53 |
  |    O           2     -319.24     -20.30      0.63  -2.639E-02   0.43 |
  |    O           3     -319.56     -13.60      0.83  -3.144E-02   0.98 |
  |    O           4     -319.82     -14.04      0.95  -4.804E-02   0.95 |
  |    O           5     -319.56     -13.60      0.83  -3.144E-02   0.98 |
  |    O           6     -320.23      -9.62      0.33  -6.562E-02   0.53 |
  |    O           7     -319.82     -14.04      0.95  -4.804E-02   0.95 |
  |    O           8     -319.24     -20.30      0.63  -2.639E-02   0.43 |
  |    O           9      -81.86      88.41      0.18  -3.225E+00   0.06 |
  |    O          10      -14.58     -39.66      0.81   3.894E+00   0.89 |
  |    O          11       -6.07     -58.51      0.97   3.779E+00   0.97 |
  |    O          12      -11.30      56.08      0.92   3.801E+00   0.93 |
  |    O          13       -7.31      57.54      0.87   3.826E+00   0.93 |
  |    O          14      -86.43      86.44      0.15  -3.147E+00   0.06 |
  |    O          15       -5.14      57.85      0.92   3.831E+00   0.93 |
  |    O          16      -14.99     -41.35      0.64   3.853E+00   0.93 |
  |    O          17      -17.37     -45.40      0.46   3.783E+00   0.95 |
  |    O          18       -6.88      59.07      0.78   3.852E+00   0.95 |
  |    O          19      -10.55      60.71      0.38   3.921E+00   0.87 |
  |    O          20     -160.50     141.23      0.87   1.049E+00   0.61 |
  |    O          21      -15.56     -42.72      0.57   3.848E+00   0.93 |
  |    O          22       -7.31      57.55      0.87   3.826E+00   0.93 |
  |    O          23      -85.85      88.67      0.15  -3.177E+00   0.07 |
  |    O          24       -5.15      57.85      0.92   3.831E+00   0.93 |
  |    O          25       -6.06     -58.50      0.97   3.779E+00   0.97 |
  |    O          26      -17.92     -42.31      0.61   3.831E+00   0.93 |
  |    O          27      -81.86      88.41      0.18  -3.225E+00   0.06 |
  |    O          28      -88.92      87.08      0.06  -3.196E+00   0.07 |
  |    O          29      -86.06      87.40      0.14  -3.186E+00   0.04 |
  |    O          30      -10.55      60.71      0.38   3.921E+00   0.87 |
  |    O          31        1.62      67.97      0.96   3.801E+00   0.96 |
  |    O          32      -17.37     -45.40      0.46   3.783E+00   0.95 |
  |    O          33      -14.58     -39.65      0.81   3.894E+00   0.89 |
  |    O          34      -11.30      56.08      0.92   3.801E+00   0.93 |
  |    O          35      -86.43      86.44      0.15  -3.147E+00   0.06 |
  |    O          36      -14.99     -41.35      0.64   3.853E+00   0.93 |
  |    O          37       -6.87      59.07      0.78   3.852E+00   0.95 |
  |    O          38     -160.50     141.23      0.87   1.049E+00   0.61 |
  |    O          39      -15.56     -42.72      0.57   3.848E+00   0.93 |
  |    O          40      -85.85      88.67      0.15  -3.177E+00   0.07 |
  |    O          41      -17.91     -42.31      0.61   3.831E+00   0.93 |
  |    O          42      -88.92      87.08      0.06  -3.196E+00   0.07 |
  |    O          43      -86.06      87.41      0.14  -3.186E+00   0.04 |
  |    O          44        1.62      67.97      0.96   3.801E+00   0.96 |
  |    O          45      -85.66      87.16      0.20  -3.207E+00   0.05 |
  |    O          46      -85.09      87.15      0.18  -3.153E+00   0.04 |
  |    O          47      -19.08      37.45      0.63   3.937E+00   0.86 |
  |    O          48      -90.53      86.18      0.08  -3.168E+00   0.04 |
  |    O          49      -87.89      86.42      0.16  -3.206E+00   0.06 |
  |    O          50      -87.88      86.49      0.21  -3.165E+00   0.06 |
  |    O          51      -85.09      87.16      0.18  -3.153E+00   0.04 |
  |    O          52      -85.66      87.16      0.20  -3.207E+00   0.05 |
  |    O          53      -19.08      37.45      0.63   3.937E+00   0.86 |
  |    O          54      -90.53      86.18      0.08  -3.168E+00   0.04 |
  |    O          55      -87.89      86.42      0.16  -3.206E+00   0.06 |
  |    O          56      -87.88      86.48      0.21  -3.165E+00   0.06 |
  |    Zr          1     1599.80    -107.93      0.04  -3.361E+01   0.10 |
  |    Zr          2     1612.95    -114.54      0.14  -3.446E+01   0.06 |
  |    Zr          3     1612.95    -114.54      0.14  -3.446E+01   0.06 |
  |    Zr          4     1629.52    -121.17      0.18  -3.560E+01   0.13 |
  |    Sn          1     3244.73     -58.60      0.05   1.195E+02   0.04 |
  |    Sn          2     3242.92     -64.60      0.39   1.175E+02   0.17 |
  |    Sn          3     3244.73     -58.60      0.05   1.195E+02   0.04 |
  |    Sn          4     3242.92     -64.60      0.39   1.175E+02   0.17 |
  |    Sn          5     3245.72     -61.87      0.41   1.181E+02   0.01 |
  |    Sn          6     3253.09     -62.52      0.49   1.209E+02   0.03 |
  |    Sn          7     3245.72     -61.87      0.41   1.181E+02   0.01 |
  |    Sn          8     3253.09     -62.52      0.49   1.209E+02   0.03 |
  |    Sn          9     3253.88     -59.06      0.64   1.211E+02   0.21 |
  |    Sn         10     3255.33     -57.65      0.24   1.234E+02   0.18 |
  |    Sn         11     3255.33     -57.65      0.24   1.234E+02   0.18 |
  |    Sn         12     3235.15     -64.64      0.19   1.144E+02   0.13 |
  |    La          1     4598.72     548.09      0.07  -8.115E+01   0.18 |
  |    La          2     4550.83     388.70      0.05  -7.637E+01   0.06 |
  |    La          3     4607.78     522.21      0.05  -8.211E+01   0.08 |
  |    La          4     4653.79     660.55      0.07  -8.552E+01   0.13 |
  |    La          5     4550.83     388.70      0.05  -7.637E+01   0.06 |
  |    La          6     4607.78     522.21      0.05  -8.211E+01   0.08 |
  |    La          7     4653.79     660.55      0.07  -8.552E+01   0.13 |
  |    La          8     4501.61     229.04      0.04  -7.163E+01   0.02 |
  |    La          9     4543.67     393.06      0.08  -7.503E+01   0.10 |
  |    La         10     4607.90     510.55      0.07  -8.093E+01   0.06 |
  |    La         11     4543.66     393.06      0.08  -7.503E+01   0.10 |
  |    La         12     4607.90     510.55      0.07  -8.093E+01   0.06 |
  |    La         13     4492.37     235.41      0.04  -7.077E+01   0.01 |
  |    La         14     4561.37     380.86      0.04  -7.750E+01   0.09 |
  |    La         15     4561.37     380.86      0.04  -7.750E+01   0.09 |
  |    La         16     4594.36     554.93      0.08  -7.908E+01   0.15 |
  ========================================================================
 
 *********************** Forces ***********************
 *                                                    *
 *            Cartesian components (eV/A)             *
 * -------------------------------------------------- *
 *                   x            y            z      *
 *                                                    *
 * O         1      0.00320     -0.00007      0.00077 *
 * O         2     -0.00051      0.00225      0.00676 *
 * O         3      0.00185     -0.00100     -0.00034 *
 * O         4     -0.00569     -0.00232     -0.00298 *
 * O         5     -0.00185      0.00100      0.00034 *
 * O         6     -0.00320      0.00007     -0.00077 *
 * O         7      0.00569      0.00232      0.00298 *
 * O         8      0.00051     -0.00225     -0.00676 *
 * O         9     -0.00319      0.02756      0.02347 *
 * O        10      0.00225      0.00285      0.00035 *
 * O        11     -0.01193     -0.00055      0.00605 *
 * O        12      0.00264      0.00838      0.00661 *
 * O        13      0.01194      0.00458      0.00488 *
 * O        14     -0.02055      0.00407      0.02079 *
 * O        15      0.00552     -0.00517      0.00127 *
 * O        16     -0.00165      0.00445     -0.00739 *
 * O        17      0.00121     -0.00382      0.00433 *
 * O        18      0.00110      0.00071     -0.00952 *
 * O        19      0.00380     -0.00611      0.00408 *
 * O        20     -0.00053      0.00923     -0.00248 *
 * O        21      0.00453      0.00492     -0.00967 *
 * O        22     -0.01194     -0.00458     -0.00488 *
 * O        23     -0.02608      0.00357     -0.02924 *
 * O        24     -0.00552      0.00517     -0.00126 *
 * O        25      0.01193      0.00054     -0.00606 *
 * O        26     -0.00174     -0.00069     -0.00223 *
 * O        27      0.00319     -0.02757     -0.02347 *
 * O        28      0.00211      0.03248     -0.02606 *
 * O        29      0.02308      0.03294      0.00211 *
 * O        30     -0.00380      0.00611     -0.00407 *
 * O        31     -0.00080      0.00337      0.00885 *
 * O        32     -0.00121      0.00382     -0.00433 *
 * O        33     -0.00225     -0.00285     -0.00035 *
 * O        34     -0.00264     -0.00837     -0.00660 *
 * O        35      0.02055     -0.00407     -0.02079 *
 * O        36      0.00165     -0.00445      0.00738 *
 * O        37     -0.00110     -0.00071      0.00952 *
 * O        38      0.00054     -0.00923      0.00248 *
 * O        39     -0.00452     -0.00492      0.00967 *
 * O        40      0.02610     -0.00357      0.02924 *
 * O        41      0.00174      0.00069      0.00223 *
 * O        42     -0.00211     -0.03248      0.02606 *
 * O        43     -0.02309     -0.03294     -0.00211 *
 * O        44      0.00080     -0.00337     -0.00886 *
 * O        45      0.00754      0.01608      0.02526 *
 * O        46      0.00244     -0.02417      0.02176 *
 * O        47     -0.00581      0.00822     -0.00226 *
 * O        48      0.01899      0.02596     -0.00534 *
 * O        49      0.03245      0.00346     -0.02318 *
 * O        50     -0.01414     -0.00295     -0.03128 *
 * O        51     -0.00244      0.02417     -0.02176 *
 * O        52     -0.00753     -0.01608     -0.02526 *
 * O        53      0.00582     -0.00822      0.00225 *
 * O        54     -0.01900     -0.02596      0.00535 *
 * O        55     -0.03246     -0.00346      0.02318 *
 * O        56      0.01414      0.00295      0.03128 *
 * Zr        1     -0.00000      0.00000     -0.00000 *
 * Zr        2      0.00195      0.01512     -0.02959 *
 * Zr        3     -0.00195     -0.01512      0.02959 *
 * Zr        4      0.00000     -0.00000      0.00000 *
 * Sn        1     -0.01180      0.02763     -0.02441 *
 * Sn        2     -0.00557      0.00831      0.00235 *
 * Sn        3      0.01180     -0.02763      0.02441 *
 * Sn        4      0.00556     -0.00830     -0.00235 *
 * Sn        5      0.00762      0.00640     -0.00598 *
 * Sn        6      0.00795      0.00574     -0.01157 *
 * Sn        7     -0.00762     -0.00640      0.00597 *
 * Sn        8     -0.00796     -0.00574      0.01157 *
 * Sn        9     -0.00000     -0.00000      0.00000 *
 * Sn       10      0.01826     -0.01002     -0.00189 *
 * Sn       11     -0.01826      0.01002      0.00189 *
 * Sn       12      0.00000      0.00000     -0.00000 *
 * La        1      0.00000      0.00000     -0.00000 *
 * La        2      0.00248     -0.00375     -0.00551 *
 * La        3     -0.01244      0.00959     -0.00307 *
 * La        4      0.00464      0.01023      0.01373 *
 * La        5     -0.00248      0.00375      0.00551 *
 * La        6      0.01244     -0.00959      0.00307 *
 * La        7     -0.00464     -0.01023     -0.01373 *
 * La        8     -0.00000      0.00000      0.00000 *
 * La        9      0.00450      0.00427     -0.00455 *
 * La       10      0.00094      0.00461      0.00846 *
 * La       11     -0.00450     -0.00427      0.00455 *
 * La       12     -0.00094     -0.00462     -0.00846 *
 * La       13      0.00000     -0.00000     -0.00000 *
 * La       14      0.00927     -0.00400      0.00397 *
 * La       15     -0.00927      0.00399     -0.00396 *
 * La       16     -0.00000     -0.00000      0.00000 *
 *                                                    *
 ******************************************************
 
 ***************** Stress Tensor *****************
 *                                               *
 *          Cartesian components (GPa)           *
 * --------------------------------------------- *
 *             x             y             z     *
 *                                               *
 *  x     -0.003161      0.007599      0.000219  *
 *  y      0.007599     -0.001178     -0.000488  *
 *  z      0.000219     -0.000488      0.003062  *
 *                                               *
 *  Pressure:    0.0004                          *
 *                                               *
 *************************************************
 
 Pseudo atomic calculation performed for O 2s2 2p4
 
 Converged in 39 iterations to a total energy of -432.6554 eV
 
 
 Pseudo atomic calculation performed for Zr 4s2 4p6 4d2 5s2
 
 Converged in 38 iterations to a total energy of -1285.4931 eV
 
 
 Pseudo atomic calculation performed for Sn 4d10 5s2 5p2
 
 Converged in 48 iterations to a total energy of -2044.5414 eV
 
 
 Pseudo atomic calculation performed for La 5s2 5p6 5d1 6s2
 
 Converged in 34 iterations to a total energy of -968.0372 eV
 
Charge spilling parameter for spin component 1 = 0.26%
 
     Atomic Populations (Mulliken)
     -----------------------------
Species   Ion     s      p      d      f     Total  Charge (e)
==============================================================
  O        1     1.87   5.00   0.00   0.00   6.87    -0.87
  O        2     1.87   5.00   0.00   0.00   6.87    -0.87
  O        3     1.87   5.00   0.00   0.00   6.87    -0.87
  O        4     1.87   5.00   0.00   0.00   6.87    -0.87
  O        5     1.87   5.00   0.00   0.00   6.87    -0.87
  O        6     1.87   5.00   0.00   0.00   6.87    -0.87
  O        7     1.87   5.00   0.00   0.00   6.87    -0.87
  O        8     1.87   5.00   0.00   0.00   6.87    -0.87
  O        9     1.87   4.99   0.00   0.00   6.86    -0.86
  O       10     1.88   5.03   0.00   0.00   6.91    -0.91
  O       11     1.88   5.03   0.00   0.00   6.91    -0.91
  O       12     1.88   5.03   0.00   0.00   6.91    -0.91
  O       13     1.88   5.03   0.00   0.00   6.91    -0.91
  O       14     1.87   4.99   0.00   0.00   6.86    -0.86
  O       15     1.88   5.03   0.00   0.00   6.91    -0.91
  O       16     1.88   5.03   0.00   0.00   6.91    -0.91
  O       17     1.89   5.03   0.00   0.00   6.91    -0.91
  O       18     1.88   5.03   0.00   0.00   6.91    -0.91
  O       19     1.88   5.03   0.00   0.00   6.91    -0.91
  O       20     1.86   4.95   0.00   0.00   6.80    -0.80
  O       21     1.88   5.03   0.00   0.00   6.91    -0.91
  O       22     1.88   5.03   0.00   0.00   6.91    -0.91
  O       23     1.87   4.99   0.00   0.00   6.86    -0.86
  O       24     1.88   5.03   0.00   0.00   6.91    -0.91
  O       25     1.88   5.03   0.00   0.00   6.91    -0.91
  O       26     1.89   5.03   0.00   0.00   6.91    -0.91
  O       27     1.87   4.99   0.00   0.00   6.86    -0.86
  O       28     1.87   4.99   0.00   0.00   6.86    -0.86
  O       29     1.87   4.99   0.00   0.00   6.86    -0.86
  O       30     1.88   5.03   0.00   0.00   6.91    -0.91
  O       31     1.88   5.03   0.00   0.00   6.91    -0.91
  O       32     1.89   5.03   0.00   0.00   6.91    -0.91
  O       33     1.88   5.03   0.00   0.00   6.91    -0.91
  O       34     1.88   5.03   0.00   0.00   6.91    -0.91
  O       35     1.87   4.99   0.00   0.00   6.86    -0.86
  O       36     1.88   5.03   0.00   0.00   6.91    -0.91
  O       37     1.88   5.03   0.00   0.00   6.91    -0.91
  O       38     1.86   4.95   0.00   0.00   6.80    -0.80
  O       39     1.88   5.03   0.00   0.00   6.91    -0.91
  O       40     1.87   4.99   0.00   0.00   6.86    -0.86
  O       41     1.89   5.03   0.00   0.00   6.91    -0.91
  O       42     1.87   4.99   0.00   0.00   6.86    -0.86
  O       43     1.87   4.99   0.00   0.00   6.86    -0.86
  O       44     1.88   5.03   0.00   0.00   6.91    -0.91
  O       45     1.87   4.99   0.00   0.00   6.86    -0.86
  O       46     1.87   4.99   0.00   0.00   6.86    -0.86
  O       47     1.88   5.03   0.00   0.00   6.91    -0.91
  O       48     1.87   4.99   0.00   0.00   6.86    -0.86
  O       49     1.87   4.99   0.00   0.00   6.86    -0.86
  O       50     1.87   4.99   0.00   0.00   6.86    -0.86
  O       51     1.87   4.99   0.00   0.00   6.86    -0.86
  O       52     1.87   4.99   0.00   0.00   6.86    -0.86
  O       53     1.88   5.03   0.00   0.00   6.91    -0.91
  O       54     1.87   4.99   0.00   0.00   6.86    -0.86
  O       55     1.87   4.99   0.00   0.00   6.86    -0.86
  O       56     1.87   4.99   0.00   0.00   6.86    -0.86
  Zr       1     2.36   6.49   1.92   0.00  10.77     1.23
  Zr       2     2.36   6.48   1.92   0.00  10.77     1.23
  Zr       3     2.36   6.48   1.92   0.00  10.77     1.23
  Zr       4     2.36   6.48   1.92   0.00  10.76     1.24
  Sn       1     1.04   1.31  10.00   0.00  12.35     1.65
  Sn       2     1.04   1.31  10.00   0.00  12.35     1.65
  Sn       3     1.04   1.31  10.00   0.00  12.35     1.65
  Sn       4     1.04   1.31  10.00   0.00  12.35     1.65
  Sn       5     1.04   1.31  10.00   0.00  12.35     1.65
  Sn       6     1.04   1.31  10.00   0.00  12.35     1.65
  Sn       7     1.04   1.31  10.00   0.00  12.35     1.65
  Sn       8     1.04   1.31  10.00   0.00  12.35     1.65
  Sn       9     1.04   1.31  10.00   0.00  12.35     1.65
  Sn      10     1.04   1.30  10.00   0.00  12.35     1.65
  Sn      11     1.04   1.30  10.00   0.00  12.35     1.65
  Sn      12     1.04   1.31  10.00   0.00  12.35     1.65
  La       1     2.08   6.18   1.20   0.00   9.45     1.55
  La       2     2.10   6.19   1.19   0.00   9.48     1.52
  La       3     2.05   6.18   1.19   0.00   9.43     1.57
  La       4     2.03   6.17   1.20   0.00   9.40     1.60
  La       5     2.10   6.19   1.19   0.00   9.48     1.52
  La       6     2.05   6.18   1.19   0.00   9.43     1.57
  La       7     2.03   6.17   1.20   0.00   9.40     1.60
  La       8     2.12   6.20   1.19   0.00   9.52     1.48
  La       9     2.09   6.18   1.19   0.00   9.47     1.53
  La      10     2.05   6.18   1.19   0.00   9.43     1.57
  La      11     2.09   6.18   1.19   0.00   9.47     1.53
  La      12     2.05   6.18   1.19   0.00   9.43     1.57
  La      13     2.12   6.20   1.19   0.00   9.50     1.50
  La      14     2.07   6.19   1.19   0.00   9.46     1.54
  La      15     2.07   6.19   1.19   0.00   9.46     1.54
  La      16     2.06   6.17   1.20   0.00   9.43     1.57
==============================================================
 
            Bond              Population      Length (A)
============================================================
         O 45 -- Sn 11             0.35        2.10133
         O 52 -- Sn 10             0.35        2.10133
         O 27 -- Sn 11             0.35        2.10304
         O 9  -- Sn 10             0.35        2.10304
         O 43 -- Sn 9              0.35        2.10318
         O 29 -- Sn 9              0.35        2.10318
         O 47 -- Sn 2              0.34        2.10399
         O 53 -- Sn 4              0.34        2.10399
         O 33 -- Sn 1              0.34        2.10511
         O 10 -- Sn 3              0.34        2.10511
         O 28 -- Sn 6              0.34        2.10543
         O 42 -- Sn 8              0.34        2.10543
         O 47 -- Sn 3              0.33        2.10618
         O 53 -- Sn 1              0.33        2.10618
         O 49 -- Sn 2              0.34        2.10674
         O 55 -- Sn 4              0.34        2.10674
         O 56 -- Sn 6              0.34        2.10687
         O 50 -- Sn 8              0.34        2.10687
         O 19 -- Sn 6              0.33        2.10714
         O 30 -- Sn 8              0.33        2.10714
         O 33 -- Sn 7              0.33        2.10717
         O 10 -- Sn 5              0.33        2.10717
         O 16 -- Sn 3              0.34        2.10926
         O 36 -- Sn 1              0.34        2.10926
         O 36 -- Sn 12             0.34        2.10930
         O 16 -- Sn 12             0.34        2.10930
         O 19 -- Sn 11             0.33        2.10944
         O 30 -- Sn 10             0.33        2.10944
         O 40 -- Sn 1              0.34        2.10951
         O 23 -- Sn 3              0.34        2.10951
         O 14 -- Sn 10             0.34        2.10960
         O 35 -- Sn 11             0.34        2.10960
         O 21 -- Sn 7              0.33        2.10971
         O 39 -- Sn 5              0.33        2.10971
         O 21 -- Sn 4              0.34        2.11026
         O 39 -- Sn 2              0.34        2.11026
         O 48 -- Sn 7              0.34        2.11109
         O 54 -- Sn 5              0.34        2.11109
         O 51 -- Sn 3              0.34        2.11133
         O 46 -- Sn 1              0.34        2.11133
         O 24 -- Sn 10             0.34        2.11215
         O 15 -- Sn 11             0.34        2.11215
         O 26 -- Sn 12             0.34        2.11218
         O 41 -- Sn 12             0.34        2.11218
         O 22 -- Sn 6              0.34        2.11281
         O 13 -- Sn 8              0.34        2.11281
         O 24 -- Sn 5              0.33        2.11320
         O 15 -- Sn 7              0.33        2.11320
         O 18 -- Sn 4              0.33        2.11329
         O 37 -- Sn 2              0.33        2.11329
         O 13 -- Sn 9              0.33        2.11338
         O 22 -- Sn 9              0.33        2.11338
         O 32 -- Sn 7              0.34        2.11366
         O 17 -- Sn 5              0.34        2.11366
         O 37 -- Sn 6              0.33        2.11430
         O 18 -- Sn 8              0.33        2.11430
         O 41 -- Sn 2              0.33        2.11527
         O 26 -- Sn 4              0.33        2.11527
         O 42 -- Zr 2              0.44        2.11538
         O 28 -- Zr 3              0.44        2.11538
         O 20 -- Zr 3              0.41        2.11591
         O 38 -- Zr 2              0.41        2.11591
         O 52 -- Zr 1              0.43        2.11603
         O 45 -- Zr 1              0.43        2.11603
         O 20 -- Zr 4              0.40        2.11610
         O 38 -- Zr 4              0.40        2.11610
         O 17 -- Sn 12             0.33        2.11627
         O 32 -- Sn 12             0.33        2.11627
         O 25 -- Sn 5              0.33        2.11629
         O 11 -- Sn 7              0.33        2.11629
         O 12 -- Sn 9              0.33        2.11678
         O 34 -- Sn 9              0.33        2.11678
         O 11 -- Sn 6              0.34        2.11709
         O 25 -- Sn 8              0.34        2.11709
         O 43 -- Zr 2              0.43        2.11844
         O 29 -- Zr 3              0.43        2.11844
         O 50 -- Zr 1              0.44        2.11862
         O 56 -- Zr 1              0.44        2.11862
         O 31 -- Sn 3              0.33        2.11867
         O 44 -- Sn 1              0.33        2.11867
         O 27 -- Zr 4              0.44        2.11873
         O 9  -- Zr 4              0.44        2.11873
         O 34 -- Sn 2              0.33        2.11876
         O 12 -- Sn 4              0.33        2.11876
         O 35 -- Zr 2              0.44        2.11954
         O 14 -- Zr 3              0.44        2.11954
         O 31 -- Sn 11             0.33        2.11967
         O 44 -- Sn 10             0.33        2.11967
         O 49 -- Zr 3              0.44        2.12055
         O 55 -- Zr 2              0.44        2.12055
         O 40 -- Zr 4              0.44        2.12104
         O 23 -- Zr 4              0.44        2.12104
         O 54 -- Zr 1              0.44        2.12275
         O 48 -- Zr 1              0.43        2.12275
         O 46 -- Zr 3              0.44        2.12425
         O 51 -- Zr 2              0.44        2.12425
         O 2  -- La 7              0.18        2.35315
         O 8  -- La 4              0.18        2.35315
         O 4  -- La 4              0.19        2.35437
         O 7  -- La 7              0.19        2.35437
         O 3  -- La 3              0.17        2.35493
         O 5  -- La 6              0.17        2.35493
         O 1  -- La 1              0.17        2.35566
         O 6  -- La 1              0.17        2.35566
         O 2  -- La 12             0.18        2.35647
         O 8  -- La 10             0.18        2.35647
         O 4  -- La 6              0.19        2.35657
         O 7  -- La 3              0.19        2.35657
         O 4  -- La 16             0.17        2.35666
         O 7  -- La 16             0.17        2.35666
         O 1  -- La 10             0.18        2.35711
         O 6  -- La 12             0.18        2.35711
         O 3  -- La 14             0.17        2.35817
         O 5  -- La 15             0.17        2.35817
         O 2  -- La 2              0.17        2.35861
         O 8  -- La 5              0.17        2.35861
         O 1  -- La 11             0.16        2.35873
         O 6  -- La 9              0.16        2.35873
         O 3  -- La 5              0.16        2.35879
         O 5  -- La 2              0.16        2.35879
         O 1  -- La 15             0.18        2.35933
         O 6  -- La 14             0.18        2.35933
         O 4  -- La 9              0.16        2.35934
         O 7  -- La 11             0.16        2.35934
         O 2  -- La 13             0.16        2.36146
         O 8  -- La 13             0.16        2.36146
         O 3  -- La 8              0.16        2.36211
         O 5  -- La 8              0.16        2.36211
         O 33 -- La 13             0.22        2.65978
         O 10 -- La 13             0.22        2.65978
         O 38 -- La 10             0.13        2.66049
         O 20 -- La 12             0.13        2.66049
         O 21 -- La 8              0.23        2.66124
         O 39 -- La 8              0.23        2.66124
         O 15 -- La 13             0.23        2.66133
         O 24 -- La 13             0.23        2.66133
         O 52 -- La 2              0.18        2.66258
         O 45 -- La 5              0.18        2.66258
         O 12 -- La 9              0.23        2.66267
         O 34 -- La 11             0.23        2.66267
         O 25 -- La 8              0.23        2.66302
         O 11 -- La 8              0.23        2.66302
         O 20 -- La 7              0.13        2.66304
         O 38 -- La 4              0.13        2.66304
         O 28 -- La 16             0.17        2.66311
         O 42 -- La 16             0.17        2.66311
         O 50 -- La 5              0.18        2.66315
         O 56 -- La 2              0.18        2.66315
         O 44 -- La 13             0.24        2.66348
         O 31 -- La 13             0.24        2.66348
         O 22 -- La 9              0.23        2.66392
         O 13 -- La 11             0.23        2.66392
         O 17 -- La 15             0.23        2.66490
         O 32 -- La 14             0.23        2.66490
         O 16 -- La 5              0.24        2.66610
         O 36 -- La 2              0.24        2.66610
         O 41 -- La 2              0.24        2.66623
         O 26 -- La 5              0.24        2.66623
         O 18 -- La 8              0.25        2.66663
         O 37 -- La 8              0.25        2.66663
         O 23 -- La 11             0.17        2.66706
         O 40 -- La 9              0.17        2.66706
         O 53 -- La 9              0.23        2.66741
         O 47 -- La 11             0.23        2.66741
         O 9  -- La 11             0.17        2.66818
         O 27 -- La 9              0.17        2.66818
         O 30 -- La 11             0.24        2.66828
         O 19 -- La 9              0.24        2.66828
         O 35 -- La 16             0.17        2.66846
         O 14 -- La 16             0.17        2.66846
         O 55 -- La 1              0.18        2.66937
         O 49 -- La 1              0.18        2.66937
         O 11 -- La 14             0.24        2.67016
         O 25 -- La 15             0.24        2.67016
         O 54 -- La 3              0.18        2.67042
         O 48 -- La 6              0.18        2.67042
         O 32 -- La 12             0.23        2.67078
         O 17 -- La 10             0.23        2.67078
         O 43 -- La 14             0.17        2.67125
         O 29 -- La 15             0.17        2.67125
         O 13 -- La 15             0.24        2.67266
         O 22 -- La 14             0.24        2.67266
         O 36 -- La 15             0.23        2.67318
         O 16 -- La 14             0.23        2.67318
         O 55 -- La 10             0.18        2.67352
         O 49 -- La 12             0.18        2.67352
         O 44 -- La 2              0.24        2.67376
         O 31 -- La 5              0.24        2.67376
         O 26 -- La 10             0.23        2.67402
         O 41 -- La 12             0.23        2.67402
         O 12 -- La 6              0.24        2.67443
         O 34 -- La 3              0.24        2.67443
         O 29 -- La 6              0.18        2.67462
         O 43 -- La 3              0.18        2.67462
         O 46 -- La 15             0.19        2.67510
         O 51 -- La 14             0.19        2.67510
         O 51 -- La 1              0.18        2.67541
         O 46 -- La 1              0.18        2.67541
         O 39 -- La 3              0.23        2.67560
         O 21 -- La 6              0.23        2.67560
         O 18 -- La 5              0.24        2.67622
         O 37 -- La 2              0.24        2.67622
         O 53 -- La 1              0.23        2.67640
         O 47 -- La 1              0.23        2.67640
         O 15 -- La 12             0.23        2.67745
         O 24 -- La 10             0.23        2.67745
         O 54 -- La 7              0.18        2.67767
         O 48 -- La 4              0.18        2.67767
         O 30 -- La 16             0.23        2.67865
         O 19 -- La 16             0.23        2.67865
         O 52 -- La 6              0.18        2.67892
         O 45 -- La 3              0.18        2.67892
         O 42 -- La 4              0.18        2.67905
         O 28 -- La 7              0.18        2.67905
         O 56 -- La 7              0.18        2.68057
         O 50 -- La 4              0.18        2.68057
         O 27 -- La 12             0.18        2.68118
         O 9  -- La 10             0.18        2.68118
         O 35 -- La 3              0.19        2.68164
         O 14 -- La 6              0.19        2.68164
         O 10 -- La 7              0.22        2.68240
         O 33 -- La 4              0.22        2.68240
         O 23 -- La 7              0.18        2.68371
         O 40 -- La 4              0.19        2.68371
         O 15 -- O 33             -0.06        2.79240
         O 10 -- O 24             -0.06        2.79240
         O 23 -- O 47             -0.06        2.79449
         O 40 -- O 53             -0.06        2.79449
         O 36 -- O 41             -0.06        2.79492
         O 16 -- O 26             -0.06        2.79492
         O 19 -- O 28             -0.06        2.79496
         O 30 -- O 42             -0.06        2.79496
         O 19 -- O 27             -0.06        2.79601
         O 9  -- O 30             -0.06        2.79601
         O 53 -- O 55             -0.06        2.79685
         O 47 -- O 49             -0.06        2.79685
         O 12 -- O 53             -0.05        2.79702
         O 34 -- O 47             -0.05        2.79702
         O 19 -- O 22             -0.05        2.79765
         O 13 -- O 30             -0.05        2.79765
         O 18 -- O 21             -0.05        2.79852
         O 37 -- O 39             -0.05        2.79852
         O 33 -- O 44             -0.05        2.79893
         O 10 -- O 31             -0.05        2.79893
         O 14 -- O 30             -0.06        2.80181
         O 19 -- O 35             -0.06        2.80181
         O 12 -- O 22             -0.05        2.80204
         O 13 -- O 34             -0.05        2.80204
         O 39 -- O 54             -0.06        2.80213
         O 21 -- O 48             -0.06        2.80213
         O 37 -- O 56             -0.06        2.80237
         O 18 -- O 50             -0.06        2.80237
         O 33 -- O 48             -0.06        2.80304
         O 10 -- O 54             -0.06        2.80304
         O 25 -- O 39             -0.05        2.80309
         O 11 -- O 21             -0.05        2.80309
         O 47 -- O 51             -0.06        2.80347
         O 46 -- O 53             -0.06        2.80347
         O 44 -- O 52             -0.06        2.80373
         O 31 -- O 45             -0.06        2.80373
         O 17 -- O 36             -0.05        2.80424
         O 16 -- O 32             -0.05        2.80424
         O 13 -- O 29             -0.06        2.80471
         O 22 -- O 43             -0.06        2.80471
         O 12 -- O 29             -0.06        2.80563
         O 34 -- O 43             -0.06        2.80563
         O 11 -- O 32             -0.05        2.80585
         O 17 -- O 25             -0.05        2.80585
         O 35 -- O 45             -0.06        2.80592
         O 14 -- O 52             -0.06        2.80592
         O 28 -- O 56             -0.06        2.80605
         O 42 -- O 50             -0.06        2.80605
         O 15 -- O 32             -0.05        2.80622
         O 17 -- O 24             -0.05        2.80622
         O 17 -- O 26             -0.05        2.80630
         O 32 -- O 41             -0.05        2.80630
         O 18 -- O 26             -0.05        2.80666
         O 37 -- O 41             -0.05        2.80666
         O 15 -- O 31             -0.05        2.80690
         O 24 -- O 44             -0.05        2.80690
         O 11 -- O 37             -0.05        2.80723
         O 18 -- O 25             -0.05        2.80723
         O 36 -- O 46             -0.05        2.80760
         O 16 -- O 51             -0.05        2.80760
         O 26 -- O 55             -0.05        2.80774
         O 41 -- O 49             -0.05        2.80774
         O 36 -- O 44             -0.05        2.80838
         O 16 -- O 31             -0.05        2.80838
         O 10 -- O 23             -0.05        2.81036
         O 33 -- O 40             -0.05        2.81036
         O 34 -- O 39             -0.05        2.81114
         O 12 -- O 21             -0.05        2.81114
         O 15 -- O 27             -0.05        2.81129
         O 9  -- O 24             -0.05        2.81129
         O 11 -- O 22             -0.05        2.81217
         O 13 -- O 25             -0.05        2.81217
         O 14 -- O 28             -0.03        2.81821
         O 35 -- O 42             -0.03        2.81821
         O 45 -- O 50             -0.03        2.81916
         O 52 -- O 56             -0.03        2.81916
         O 38 -- O 55             -0.03        2.82317
         O 20 -- O 49             -0.03        2.82317
         O 38 -- O 42             -0.03        2.82461
         O 20 -- O 28             -0.03        2.82461
         O 9  -- O 38             -0.03        2.82475
         O 20 -- O 27             -0.03        2.82475
         O 20 -- O 23             -0.03        2.82543
         O 38 -- O 40             -0.03        2.82543
         O 9  -- O 23             -0.03        2.82723
         O 27 -- O 40             -0.03        2.82723
         O 45 -- O 54             -0.03        2.83071
         O 48 -- O 52             -0.03        2.83071
         O 51 -- O 55             -0.03        2.83102
         O 46 -- O 49             -0.03        2.83102
         O 29 -- O 46             -0.03        2.83288
         O 43 -- O 51             -0.03        2.83288
         O 54 -- O 56             -0.03        2.83360
         O 48 -- O 50             -0.03        2.83360
         O 14 -- O 29             -0.03        2.83480
         O 35 -- O 43             -0.03        2.83480
============================================================
 

Writing analysis data to 05.castep_bin

Writing model to 05.check
 
 A BibTeX formatted list of references used in this run has been written to 
 05.bib
 
Initialisation time =     54.08 s
Calculation time    =  34406.17 s
Finalisation time   =     57.94 s
Total time          =  34518.19 s
Peak Memory Use     = 2844404 kB
  
Overall parallel efficiency rating: Good (78%)                                  
  
Data was distributed by:-
G-vector (4-way); efficiency rating: Good (79%)                                 
k-point (14-way); efficiency rating: Excellent (98%)                            
