 +-------------------------------------------------+
 |                                                 |
 |      CCC   AA    SSS  TTTTT  EEEEE  PPPP        |
 |     C     A  A  S       T    E      P   P       |
 |     C     AAAA   SS     T    EEE    PPPP        |
 |     C     A  A     S    T    E      P           |
 |      CCC  A  A  SSS     T    EEEEE  P           |
 |                                                 |
 +-------------------------------------------------+
 |                                                 |
 | Welcome to Academic Release CASTEP version 16.11|          
 | Ab Initio Total Energy Program                  |
 |                                                 |
 | Authors:                                        |
 | M. Segall, M. Probert, C. Pickard, P. Hasnip,   |
 | S. Clark, K. Refson, J. R. Yates, M. Payne      |
 |                                                 |
 | Contributors:                                   |
 | P. Lindan, P. Haynes, J. White, V. Milman,      |
 | N. Govind, M. Gibson, P. Tulip, V. Cocula,      |
 | B. Montanari, D. Quigley, M. Glover,            |
 | L. Bernasconi, A. Perlov, M. Plummer,           |
 | E. McNellis, J. Meyer, J. Gale, D. Jochym       |
 | J. Aarons, B. Walker, R. Gillen, D. Jones       |
 | T. Green, I. J. Bush, C. J. Armstrong,          |
 | E. J. Higgins, E. L. Brown, M. S. McFly         |
 |                                                 |
 | Copyright (c) 2000 - 2015                       |
 |                                                 |
 |     Distributed under the terms of an           |
 |     Agreement between the United Kingdom        |
 |     Car-Parrinello (UKCP) Consortium,           |
 |     Daresbury Laboratory and Accelrys, Inc.     |
 |                                                 |
 | Please cite                                     |
 |                                                 |
 |     "First principles methods using CASTEP"     |
 |                                                 |
 |         Zeitschrift fuer Kristallographie       |
 |           220(5-6) pp. 567-570 (2005)           |
 |                                                 |
 | S. J. Clark, M. D. Segall, C. J. Pickard,       |
 | P. J. Hasnip, M. J. Probert, K. Refson,         |
 | M. C. Payne                                     |
 |                                                 |
 |       in all publications arising from          |
 |              your use of CASTEP                 |
 |                                                 |
 +-------------------------------------------------+
 
 
 Compiled for linux_x86_64_ifort16 on Sat, 23 Jul 2016 23:44:54 +0100
 from code version 
 203e84763863+ Castep161_branch Fri, 04 Mar 2016 19:21:07 +0000
 Compiler: Intel Fortran 16.0.3.210; Optimisation: fast
 MATHLIBS: Intel MKL(11.3.3) (LAPACK version 3.6.0)
 FFT Lib : mkl
 Fundamental constants values: CODATA 2010
 
 Run started: Tue, 06 Mar 2018 01:30:20 +0000
 +-------------------------------------------------+
 |                                                 |
 |           N   N    M   M    RRRR                |
 |           NN  N    MM MM    R   R               |
 |           N N N    M M M    RRRR                |
 |           N  NN    M   M    R  R                |
 |           N   N    M   M    R   R               |
 |                                                 |
 +-------------------------------------------------+
 |                                                 |
 | Welcome to Materials Studio CASTEP-NMR          |
 |                                                 |
 | Authors:                                        |
 | J.R. Yates, C.J. Pickard, F. Mauri              |
 |                                                 |
 | Contributors:                                   |
 | T.F.G. Green, S.A. Joyce                        |
 |                                                 |
 | Copyright (c) 2004 - 2015                       |
 |                                                 |
 | Please cite the appropriate publications in all |
 | work arising from your use of CASTEP NMR.       |
 |                                                 |
 | For NMR Shielding Tensors cite:                 |
 |    "All-electron magnetic response with         |
 |    pseudopotentials: NMR chemical shifts",      |
 |    C. J. Pickard, F. Mauri;                     |
 |    Physical Review B63 245101 (2001), and       |
 |                                                 |
 |    "Calculation of NMR Chemical Shifts          |
 |    for extended systems using                   |
 |    Ultrasoft Pseudopotentials",                 |
 |    J. R. Yates, C. J. Pickard and F. Mauri      |
 |    Physical Review B76 024401 (2007)            |
 |                                                 |
 | For Electric Field Gradients cite:              |
 |   "Accurate First Principles Prediction of 17O  |
 |    NMR Parameters in SiO2: Assignment of the    |
 |    Zeolite Ferrierite Spectrum"                 |
 |    M. Profeta, F. Mauri and C. J. Pickard       |
 |    J. Amer. Chem. Soc. 125 541 (2003)           |
 |                                                 |
 | For Spin-Spin (J) Couplings cite:               |
 |   "A first principles theory of NMR J-coupling  |
 |   in solid-state systems"                       |
 |   S.A. Joyce, J.R. Yates, C.J. Pickard, F. Mauri|
 |   J. Chem. Phys. 127 204107 (2007)              |
 |                                                 |
 |   "Relativistic NMR J-coupling with ultrasoft   |
 |   pseudopotentials and the zeroth-order regular |
 |   approximation"                                |
 |   T.F.G. Green and J.R. Yates                   |
 |   J. Chem. Phys. 140 234106 (2014)              |
 |                                                 |
 +-------------------------------------------------+
 
 
 Atomic calculation performed for O: 1s2 2s2 2p4
 
 Converged in 44 iterations to an ae energy of -2040.855 eV
 
 
 Atomic calculation performed for O: 1s2 2s2 2p4
 
 Exceeded max iterations: converged to 0.000000062 eV
 
   ============================================================                
   | Pseudopotential Report - Date of generation  6-03-2018   |                
   ------------------------------------------------------------                
   | Element: O Ionic charge:  6.00 Level of theory: PBE      |                
   | Atomic Solver: ZORA (scalar)                             |                
   |                                                          |                
   |               Reference Electronic Structure             |                
   |         Orbital         Occupation         Energy        |                
   |            2s              2.000           -0.881        |                
   |            2p              4.000           -0.332        |                
   |                                                          |                
   |                 Pseudopotential Definition               |                
   |        Beta     l      e      Rc     scheme   norm       |                
   |          1      0   -0.881   1.100     qc      0         |                
   |          2      0    0.250   1.100     qc      0         |                
   |          3      1   -0.332   1.100     qc      0         |                
   |          4      1    0.250   1.100     qc      0         |                
   |         loc     2    0.000   1.100     pn      0         |                
   |                                                          |                
   | Augmentation charge Rinner = 0.769                       |                
   | Partial core correction Rc = 0.769                       |                
   ------------------------------------------------------------                
   | "2|1.1|15|18|20|20:21(qc=7)"                             |                
   ------------------------------------------------------------                
   |      Author: Chris J. Pickard, Cambridge University      |                
   ============================================================                
 
 Atomic calculation performed for Zr: 1s2 2s2 2p6 3s2 3p6 3d10 4s2 4p6 4d2 5s2
 
 Converged in 53 iterations to an ae energy of -97719.888 eV
 
 
 Atomic calculation performed for Zr: 1s2 2s2 2p6 3s2 3p6 3d10 4s2 4p6 4d2 5s2
 
 Exceeded max iterations: converged to 0.000000970 eV
 
 Warning: ion_atom_descreen_psp: negative charge density encountered
   ============================================================                
   | Pseudopotential Report - Date of generation  6-03-2018   |                
   ------------------------------------------------------------                
   | Element: Zr Ionic charge: 12.00 Level of theory: PBE     |                
   | Atomic Solver: ZORA (scalar)                             |                
   |                                                          |                
   |               Reference Electronic Structure             |                
   |         Orbital         Occupation         Energy        |                
   |            4s              2.000           -2.003        |                
   |            4p              6.000           -1.193        |                
   |            5s              2.000           -0.163        |                
   |            4d              2.000           -0.132        |                
   |                                                          |                
   |                 Pseudopotential Definition               |                
   |        Beta     l      e      Rc     scheme   norm       |                
   |          1      0   -2.003   2.105     qc      0         |                
   |          2      0   -0.163   2.105     qc      0         |                
   |          3      0    0.250   2.105     qc      0         |                
   |          4      1   -1.193   2.105     qc      0         |                
   |          5      1    0.250   2.105     qc      0         |                
   |          6      2   -0.132   2.105     qc      0         |                
   |          7      2    0.250   2.105     qc      0         |                
   |         loc     3    0.000   2.105     pn      0         |                
   |                                                          |                
   | Augmentation charge Rinner = 1.471                       |                
   | Partial core correction Rc = 1.471                       |                
   ------------------------------------------------------------                
   | "3|2.1|7|8|9|40U:50:41:42"                               |                
   ------------------------------------------------------------                
   |      Author: Chris J. Pickard, Cambridge University      |                
   ============================================================                
 
 Atomic calculation performed for Sn:
 1s2 2s2 2p6 3s2 3p6 3d10 4s2 4p6 4d10 5s2 5p2
 
 Converged in 58 iterations to an ae energy of -167539.320 eV
 
 
 Atomic calculation performed for Sn:
 1s2 2s2 2p6 3s2 3p6 3d10 4s2 4p6 4d10 5s2 5p2
 
 Exceeded max iterations: converged to 0.000001154 eV
 
   ============================================================                
   | Pseudopotential Report - Date of generation  6-03-2018   |                
   ------------------------------------------------------------                
   | Element: Sn Ionic charge: 14.00 Level of theory: PBE     |                
   | Atomic Solver: ZORA (scalar)                             |                
   |                                                          |                
   |               Reference Electronic Structure             |                
   |         Orbital         Occupation         Energy        |                
   |            4d             10.000           -0.950        |                
   |            5s              2.000           -0.388        |                
   |            5p              2.000           -0.136        |                
   |                                                          |                
   |                 Pseudopotential Definition               |                
   |        Beta     l      e      Rc     scheme   norm       |                
   |          1      0   -0.388   2.199     qc      0         |                
   |          2      0    0.250   2.199     qc      0         |                
   |          3      1   -0.136   2.199     qc      0         |                
   |          4      1    0.250   2.199     qc      0         |                
   |          5      2   -0.950   2.199     qc      0         |                
   |          6      2    0.250   2.199     qc      0         |                
   |         loc     3    0.000   2.199     pn      0         |                
   |                                                          |                
   | Augmentation charge Rinner = 1.537                       |                
   | Partial core correction Rc = 1.537                       |                
   ------------------------------------------------------------                
   | "3|2.2|7|8|9|50:51:42"                                   |                
   ------------------------------------------------------------                
   |      Author: Chris J. Pickard, Cambridge University      |                
   ============================================================                
 
 Atomic calculation performed for La:
 1s2 2s2 2p6 3s2 3p6 3d10 4s2 4p6 4d10 5s2 5p6 5d1 6s2
 
 Converged in 56 iterations to an ae energy of -230121.495 eV
 
 
 Atomic calculation performed for La:
 1s2 2s2 2p6 3s2 3p6 3d10 4s2 4p6 4d10 5s2 5p6 5d1 6s2
 
 Exceeded max iterations: converged to 0.000000907 eV
 
 Warning: ion_atom_descreen_psp: negative charge density encountered
   ============================================================                
   | Pseudopotential Report - Date of generation  6-03-2018   |                
   ------------------------------------------------------------                
   | Element: La Ionic charge: 11.00 Level of theory: PBE     |                
   | Atomic Solver: ZORA (scalar)                             |                
   |                                                          |                
   |               Reference Electronic Structure             |                
   |         Orbital         Occupation         Energy        |                
   |            5s              2.000           -1.430        |                
   |            5p              6.000           -0.823        |                
   |            6s              2.000           -0.135        |                
   |            5d              1.000           -0.114        |                
   |                                                          |                
   |                 Pseudopotential Definition               |                
   |        Beta     l      e      Rc     scheme   norm       |                
   |          1      0   -1.430   2.298     qc      0         |                
   |          2      0   -0.135   2.298     qc      0         |                
   |          3      0    0.250   2.298     qc      0         |                
   |          4      1   -0.823   2.298     qc      0         |                
   |          5      1    0.250   2.298     qc      0         |                
   |          6      2   -0.114   2.298     qc      0         |                
   |          7      2    0.250   2.298     qc      0         |                
   |         loc     2    0.000   2.298     pn      0         |                
   |                                                          |                
   | Augmentation charge Rinner = 1.606                       |                
   | Partial core correction Rc = 1.606                       |                
   ------------------------------------------------------------                
   | "2|2.3|5|6|7|50U:60:51:52(qc=4.5)"                       |                
   ------------------------------------------------------------                
   |      Author: Chris J. Pickard, Cambridge University      |                
   ============================================================                
 
 Pseudo atomic calculation performed for O 2s2 2p4
 
 Converged in 39 iterations to a total energy of -432.6554 eV
 
 
 Pseudo atomic calculation performed for Zr 4s2 4p6 4d2 5s2
 
 Converged in 38 iterations to a total energy of -1285.4931 eV
 
 
 Pseudo atomic calculation performed for Sn 4d10 5s2 5p2
 
 Converged in 48 iterations to a total energy of -2044.5414 eV
 
 
 Pseudo atomic calculation performed for La 5s2 5p6 5d1 6s2
 
 Converged in 34 iterations to a total energy of -968.0372 eV
 
 Calculation parallelised over 56 processes.
 Data is distributed by G-vector(4-way) and k-point(14-way)

 ************************************ Title ************************************
 nmr testing

 ***************************** General Parameters ******************************
  
 output verbosity                               : normal  (1)
 write checkpoint data to                       : 18.check
 type of calculation                            : Magnetic Resonance
 stress calculation                             : on
 density difference calculation                 : off
 electron localisation func (ELF) calculation   : off
 Hirshfeld analysis                             : off
 unlimited duration calculation
 timing information                             : on
 memory usage estimate                          : on
 write final potential to formatted file        : off
 write final density to formatted file          : off
 write structure in CIF formatted file          : on
 write structure in CELL formatted file         : on
 write BibTeX reference list                    : on
 write OTFG pseudopotential files               : on
 checkpoint writing                             : both castep_bin and check files
  
 output         length unit                     : A
 output           mass unit                     : amu
 output           time unit                     : ps
 output         charge unit                     : e
 output           spin unit                     : hbar/2
 output         energy unit                     : eV
 output          force unit                     : eV/A
 output       velocity unit                     : A/ps
 output       pressure unit                     : GPa
 output     inv_length unit                     : 1/A
 output      frequency unit                     : cm-1
 output force constant unit                     : eV/A**2
 output         volume unit                     : A**3
 output   IR intensity unit                     : (D/A)**2/amu
 output         dipole unit                     : D
 output         efield unit                     : eV/A/e
 output        entropy unit                     : J/mol/K
  
 wavefunctions paging                           : none
 random number generator seed                   : randomised (13022829)
 data distribution                              : optimal for this architecture
 optimization strategy                          : maximize speed(+++)

 *********************** Exchange-Correlation Parameters ***********************
  
 using functional                               : Perdew Burke Ernzerhof
 relativistic treatment                         : ZORA
 DFT+D: Semi-empirical dispersion correction    : off

 ************************* Pseudopotential Parameters **************************
  
 pseudopotential representation                 : reciprocal space
 <beta|phi> representation                      : reciprocal space
 spin-orbit coupling                            : off

 **************************** Basis Set Parameters *****************************
  
 plane wave basis set cut-off                   :   816.3416   eV
 size of standard grid                          :     1.7500
 size of   fine   gmax                          :    25.6161   1/A
 finite basis set correction                    : automatic
 number of sample energies                      :          3
           sample  spacing                      :     5.0000   eV

 **************************** Electronic Parameters ****************************
  
 number of  electrons                           :  728.0    
 net charge of system                           :  0.000    
 treating system as non-spin-polarized
 number of bands                                :        437

 ********************* Electronic Minimization Parameters **********************
  
 Method: Treating system as metallic with density mixing treatment of electrons,
         and number of  SD  steps               :          1
         and number of  CG  steps               :          4
  
 total energy / atom convergence tol.           : 0.1000E-08   eV
 eigen-energy convergence tolerance             : 0.2418E-09   eV
 max force / atom convergence tol.              : ignored
 convergence tolerance window                   :          3   cycles
 max. number of SCF cycles                      :         50
 number of fixed-spin iterations                :         10
 smearing scheme                                : Gaussian
 smearing width                                 : 0.2000       eV
 Fermi energy convergence tolerance             : 0.2721E-13   eV
 periodic dipole correction                     : NONE

 ************************** Density Mixing Parameters **************************
  
 density-mixing scheme                          : Broyden
 max. length of mixing history                  :         20
 charge density mixing amplitude                : 0.8000    
 cut-off energy for mixing                      :  816.3       eV

 *********************** Population Analysis Parameters ************************
  
 Population analysis with cutoff                :  3.000       A

 ************************ Magnetic Resonance Parameters ************************
  
 Magnetic Resonance Property                    : Chemical Shielding + EFG
 Position Operator Method                       : crystal
 max. number of MagRes CG steps                 :        250
 convergence tolerance window                   :          2   cycles
 energy convergence tolerance                   : 0.1000E-11   eV
 band convergence tolerance                     : 0.1000E-08   eV

 *******************************************************************************
  
 
                           -------------------------------
                                      Unit Cell
                           -------------------------------
        Real Lattice(A)                      Reciprocal Lattice(1/A)
  10.8908550   0.0062531   0.0011939        0.5769232  -0.0003312  -0.0000631
   0.0062517  10.8891454   0.0050196       -0.0003313   0.5770139  -0.0002660
   0.0011933   0.0050201  10.8887749       -0.0000631  -0.0002660   0.5770334
 
                       Lattice parameters(A)       Cell Angles
                    a =   10.890857          alpha =   89.947169
                    b =   10.889148          beta  =   89.987424
                    c =   10.888776          gamma =   89.934205
 
                       Current cell volume = 1291.322011       A**3
 
                           -------------------------------
                                     Cell Contents
                           -------------------------------
                         Total number of ions in cell =   88
                      Total number of species in cell =    4
                        Max number of any one species =   56
 
            xxxxxxxxxxxxxxxxxxxxxxxxxxxxxxxxxxxxxxxxxxxxxxxxxxxxxxxxxxxx
            x  Element    Atom        Fractional coordinates of atoms  x
            x            Number           u          v          w      x
            x----------------------------------------------------------x
            x  O            1         0.125358   0.124614   0.124831   x 
            x  O            2         0.624733   0.124870   0.625278   x 
            x  O            3         0.125394   0.625040   0.625271   x 
            x  O            4         0.624481   0.625342   0.124808   x 
            x  O            5         0.874681   0.375097   0.375121   x 
            x  O            6         0.875037   0.874941   0.875144   x 
            x  O            7         0.375215   0.375018   0.874900   x 
            x  O            8         0.375238   0.874702   0.375175   x 
            x  O            9         0.420649   0.126116   0.125377   x 
            x  O           10         0.330186   0.125195   0.624110   x 
            x  O           11         0.830971   0.625168   0.625141   x 
            x  O           12         0.919039   0.624989   0.125022   x 
            x  O           13         0.124969   0.419357   0.124760   x 
            x  O           14         0.624770   0.330577   0.124521   x 
            x  O           15         0.625649   0.828896   0.623540   x 
            x  O           16         0.124453   0.919761   0.624241   x 
            x  O           17         0.124828   0.124911   0.419135   x 
            x  O           18         0.124575   0.624886   0.330327   x 
            x  O           19         0.626087   0.623992   0.828971   x 
            x  O           20         0.625534   0.126284   0.920612   x 
            x  O           21         0.875562   0.669590   0.375177   x 
            x  O           22         0.875268   0.580557   0.875306   x 
            x  O           23         0.374058   0.079031   0.873924   x 
            x  O           24         0.375164   0.169299   0.375438   x 
            x  O           25         0.169629   0.374950   0.375067   x 
            x  O           26         0.080645   0.874856   0.375377   x 
            x  O           27         0.579818   0.874971   0.875075   x 
            x  O           28         0.669928   0.375196   0.875620   x 
            x  O           29         0.874971   0.375053   0.080802   x 
            x  O           30         0.374988   0.374984   0.169604   x 
            x  O           31         0.374387   0.876494   0.671128   x 
            x  O           32         0.875642   0.875090   0.580764   x 
            x  O           33         0.669898   0.875502   0.375142   x 
            x  O           34         0.080659   0.374574   0.875211   x 
            x  O           35         0.375547   0.669917   0.875569   x 
            x  O           36         0.875016   0.080644   0.375139   x 
            x  O           37         0.875637   0.375112   0.669727   x 
            x  O           38         0.375133   0.874768   0.080091   x 
            x  O           39         0.124511   0.330559   0.624789   x 
            x  O           40         0.625905   0.920533   0.125895   x 
            x  O           41         0.919019   0.125125   0.624897   x 
            x  O           42         0.329478   0.623719   0.125350   x 
            x  O           43         0.123815   0.624337   0.920736   x 
            x  O           44         0.624723   0.124460   0.330479   x 
            x  O           45         0.419759   0.625385   0.624387   x 
            x  O           46         0.830571   0.124913   0.124909   x 
            x  O           47         0.124382   0.125590   0.830085   x 
            x  O           48         0.625841   0.625937   0.420825   x 
            x  O           49         0.875459   0.169355   0.875214   x 
            x  O           50         0.374232   0.579635   0.374384   x 
            x  O           51         0.171396   0.875942   0.873897   x 
            x  O           52         0.579043   0.374344   0.374348   x 
            x  O           53         0.875010   0.874993   0.169563   x 
            x  O           54         0.374447   0.374023   0.579674   x 
            x  O           55         0.123706   0.829075   0.125506   x 
            x  O           56         0.625775   0.420988   0.626068   x 
            x  Zr           1         0.499736   0.500071   0.499959   x 
            x  Zr           2         0.249190   0.749138   0.000260   x 
            x  Zr           3         0.500305   0.000320   0.000243   x 
            x  Zr           4         0.500186   0.749731   0.749238   x 
            x  Sn           1         0.750412   0.999602   0.250448   x 
            x  Sn           2         0.999915   0.250068   0.749995   x 
            x  Sn           3         0.750494   0.250575   0.999700   x 
            x  Sn           4         0.248176   0.001901   0.747942   x 
            x  Sn           5         0.999447   0.750346   0.250484   x 
            x  Sn           6         0.249459   0.249551   0.500187   x 
            x  Sn           7         0.751353   0.499233   0.751202   x 
            x  Sn           8         0.751447   0.751095   0.499088   x 
            x  Sn           9         0.249863   0.499866   0.249859   x 
            x  Sn          10         0.999445   0.499443   0.999769   x 
            x  Sn          11         0.499937   0.249943   0.249927   x 
            x  Sn          12         0.999915   0.000090   0.499862   x 
            x  La           1         0.000228   0.999662   0.000110   x 
            x  La           2         0.749566   0.250215   0.500105   x 
            x  La           3         0.250642   0.500376   0.750002   x 
            x  La           4         0.499610   0.750102   0.249633   x 
            x  La           5         0.250604   0.749461   0.500118   x 
            x  La           6         0.749432   0.500106   0.250170   x 
            x  La           7         0.500119   0.250156   0.750052   x 
            x  La           8         0.000084   0.500030   0.500122   x 
            x  La           9         0.749388   0.750385   0.999840   x 
            x  La          10         0.250386   0.999475   0.249577   x 
            x  La          11         0.250332   0.249846   0.000016   x 
            x  La          12         0.749508   0.999795   0.750475   x 
            x  La          13         0.500078   0.999779   0.500102   x 
            x  La          14         0.000245   0.749912   0.750282   x 
            x  La          15         0.000042   0.249900   0.250027   x 
            x  La          16         0.499594   0.500570   0.999750   x 
            xxxxxxxxxxxxxxxxxxxxxxxxxxxxxxxxxxxxxxxxxxxxxxxxxxxxxxxxxxxx
 
 
                         No user defined ionic velocities
 
                           -------------------------------
                                   Details of Species
                           -------------------------------
 
                               Mass of species in AMU
                                    O   15.9994000
                                    Zr   91.2240000
                                    Sn  118.7100000
                                    La  138.9055000
 
                          Electric Quadrupole Moment (Barn)
                                    O   -0.0255800 Isotope 17
                                    Zr   -0.1760000 Isotope 91
                                    Sn    1.0000000 No Isotope Defined
                                    La    0.2000000 Isotope139
 
                          Files used for pseudopotentials:
                                    O 2|1.1|15|18|20|20:21(qc=7)
                                    Zr 3|2.1|7|8|9|40U:50:41:42
                                    Sn 3|2.2|7|8|9|50:51:42
                                    La 2|2.3|5|6|7|50U:60:51:52(qc=4.5)
 
                           -------------------------------
                              k-Points For BZ Sampling
                           -------------------------------
                       MP grid size for SCF calculation is  3  3  3
                            with an offset of   0.000  0.000  0.000
                       Number of kpoints used =            14
 
                           -------------------------------
                               Symmetry and Constraints
                           -------------------------------
 
                      Maximum deviation from symmetry =  0.00000         ANG
 
         There are no symmetry operations specified or generated for this cell
                      Number of ionic constraints     =           3
                      Point group of crystal =     1: C1, 1, 1
                      Space group of crystal =     1: P1, P 1
 
 
                         Centre of mass is constrained
             Set iprint > 1 for details of linear ionic constraints
 
                         Number of cell constraints= 0
                         Cell constraints are:  1 2 3 4 5 6
 
                         External pressure/stress (GPa)
                          0.00000   0.00000   0.00000
                                    0.00000   0.00000
                                              0.00000
  
+---------------- MEMORY AND SCRATCH DISK ESTIMATES PER PROCESS --------------+
|                                                     Memory          Disk    |
| Baseline code, static data and system overhead      322.0 MB         0.0 MB |
| BLAS internal memory storage                          0.0 MB         0.0 MB |
| Model and support data                             1318.0 MB         0.0 MB |
| Electronic energy minimisation requirements         384.5 MB         0.0 MB |
| Force calculation requirements                       24.1 MB         0.0 MB |
| Stress calculation requirements                      28.3 MB         0.0 MB |
|                                               ----------------------------- |
| Approx. total storage required per process         2024.5 MB         0.0 MB |
|                                                                             |
| Requirements will fluctuate during execution and may exceed these estimates |
+-----------------------------------------------------------------------------+
Calculating finite basis set correction with  3 cut-off energies.
Calculating total energy with cut-off of  806.342eV.
------------------------------------------------------------------------ <-- SCF
SCF loop      Energy           Fermi           Energy gain       Timer   <-- SCF
                               energy          per atom          (sec)   <-- SCF
------------------------------------------------------------------------ <-- SCF
Initial  -6.00350378E+004  0.00000000E+000                        75.99  <-- SCF
      1  -6.75435155E+004  7.29895241E+000   8.53236112E+001     217.81  <-- SCF
      2  -7.00826548E+004  6.11003867E+000   2.88538549E+001     310.48  <-- SCF
      3  -7.01673147E+004  5.87306915E+000   9.62044231E-001     412.35  <-- SCF
      4  -7.01572613E+004  7.43082305E+000  -1.14243215E-001     542.32  <-- SCF
      5  -7.00634570E+004  6.46742374E+000  -1.06595710E+000     669.59  <-- SCF
      6  -7.00644569E+004  6.35695111E+000   1.13622374E-002     834.97  <-- SCF
      7  -7.00640296E+004  6.43982555E+000  -4.85590028E-003     974.91  <-- SCF
      8  -7.00641493E+004  6.44515606E+000   1.36042021E-003    1156.60  <-- SCF
      9  -7.00641746E+004  6.44697924E+000   2.87706650E-004    1302.49  <-- SCF
     10  -7.00641722E+004  6.44661280E+000  -2.79007280E-005    1439.48  <-- SCF
     11  -7.00641727E+004  6.44762588E+000   5.43985204E-006    1582.77  <-- SCF
     12  -7.00641729E+004  6.44783810E+000   2.21981622E-006    1728.68  <-- SCF
     13  -7.00641728E+004  6.44762167E+000  -2.82518045E-007    1864.73  <-- SCF
     14  -7.00641728E+004  6.44748952E+000  -3.36881462E-007    2001.30  <-- SCF
     15  -7.00641728E+004  6.44724151E+000  -7.64298966E-008    2147.66  <-- SCF
     16  -7.00641728E+004  6.44709084E+000  -4.96181519E-009    2273.64  <-- SCF
     17  -7.00641728E+004  6.44704942E+000  -9.93825455E-009    2393.72  <-- SCF
     18  -7.00641728E+004  6.44700068E+000   1.10187564E-009    2493.83  <-- SCF
     19  -7.00641728E+004  6.44697925E+000   4.14257993E-010    2584.36  <-- SCF
     20  -7.00641728E+004  6.44698000E+000   4.30288343E-011    2673.70  <-- SCF
------------------------------------------------------------------------ <-- SCF
 
Final energy, E             =  -70064.17278891     eV
Final free energy (E-TS)    =  -70064.17278891     eV
(energies not corrected for finite basis set)
 
NB est. 0K energy (E-0.5TS)      =  -70064.17278891     eV
 
Calculating total energy with cut-off of  811.342eV.
------------------------------------------------------------------------ <-- SCF
SCF loop      Energy           Fermi           Energy gain       Timer   <-- SCF
                               energy          per atom          (sec)   <-- SCF
------------------------------------------------------------------------ <-- SCF
Initial  -7.00641728E+004  0.00000000E+000                      2709.45  <-- SCF
      1  -7.00641754E+004  6.44697835E+000   2.99459191E-005    2821.34  <-- SCF
      2  -7.00641754E+004  6.44697835E+000   1.92504817E-010    2910.68  <-- SCF
      3  -7.00641754E+004  6.44697269E+000   1.80548145E-008    3000.35  <-- SCF
      4  -7.00641754E+004  6.44697953E+000   6.07044045E-010    3089.73  <-- SCF
      5  -7.00641754E+004  6.44697686E+000  -6.04653554E-011    3178.55  <-- SCF
------------------------------------------------------------------------ <-- SCF
 
Final energy, E             =  -70064.17542581     eV
Final free energy (E-TS)    =  -70064.17542581     eV
(energies not corrected for finite basis set)
 
NB est. 0K energy (E-0.5TS)      =  -70064.17542581     eV
 
Calculating total energy with cut-off of  816.342eV.
------------------------------------------------------------------------ <-- SCF
SCF loop      Energy           Fermi           Energy gain       Timer   <-- SCF
                               energy          per atom          (sec)   <-- SCF
------------------------------------------------------------------------ <-- SCF
Initial  -7.00641754E+004  0.00000000E+000                      3214.29  <-- SCF
      1  -7.00641783E+004  6.44697494E+000   3.27408362E-005    3327.93  <-- SCF
      2  -7.00641783E+004  6.44697494E+000   1.94332840E-010    3416.98  <-- SCF
      3  -7.00641783E+004  6.44696999E+000   1.91250513E-008    3506.09  <-- SCF
      4  -7.00641783E+004  6.44697597E+000   6.18715264E-010    3595.18  <-- SCF
      5  -7.00641783E+004  6.44697257E+000  -8.43702633E-012    3682.68  <-- SCF
------------------------------------------------------------------------ <-- SCF
 
Final energy, E             =  -70064.17830875     eV
Final free energy (E-TS)    =  -70064.17830875     eV
(energies not corrected for finite basis set)
 
NB est. 0K energy (E-0.5TS)      =  -70064.17830875     eV
 
 For future reference: finite basis dEtot/dlog(Ecut) =      -0.443133eV
 Total energy corrected for finite basis set =  -70064.178311 eV
 
  =====================================================================
  +       Calculation of Nuclear Magnetic Resonance Parameters        +
  + ================================================================= +
 
  Starting Calculation of Electric Field Gradient Tensors         |<-- EFG
  +---------------- MEMORY AND SCRATCH DISK ESTIMATES PER PROCESS --------------+
  |                                                     Memory          Disk    |
  | Model and support data                             1315.7 MB         0.0 MB |
  | NMR EFG calculation requirements                    370.3 MB         0.0 MB |
  |                                               ----------------------------- |
  | Approx. total storage required per process         1686.0 MB         0.0 MB |
  |                                                                             |
  | Requirements will fluctuate during execution and may exceed these estimates |
  +-----------------------------------------------------------------------------+
  Total Time for EFG Tensors                     409.27 sec       |<-- EFG
 
  Starting Calculation of Chemical Shielding Tensors              |<-- NMR
  +---------------- MEMORY AND SCRATCH DISK ESTIMATES PER PROCESS --------------+
  |                                                     Memory          Disk    |
  | Model and support data                             1315.7 MB         0.0 MB |
  | NMR chemical shift calculation requirements         568.5 MB         0.0 MB |
  |                                               ----------------------------- |
  | Approx. total storage required per process         1884.3 MB         0.0 MB |
  |                                                                             |
  | Requirements will fluctuate during execution and may exceed these estimates |
  +-----------------------------------------------------------------------------+
  Starting k-point:   1 of   1                                    |<-- NMR
  Total Time for step 1 of 6:                   3370.52 sec       |<-- NMR
  Total Time for step 2 of 6:                   3365.85 sec       |<-- NMR
  Total Time for step 3 of 6:                   3374.48 sec       |<-- NMR
  Total Time for step 4 of 6:                   3386.35 sec       |<-- NMR
  Total Time for step 5 of 6:                   3371.44 sec       |<-- NMR
  Total Time for step 6 of 6:                   3366.89 sec       |<-- NMR
  Total Time for Chemical Shielding Tensors    30113.57 sec       |<-- NMR
 
  ========================================================================
  |           Chemical Shielding and Electric Field Gradient Tensors     |
  |----------------------------------------------------------------------|
  |     Nucleus                Shielding tensor             EFG Tensor   |
  |  Species       Ion    Iso(ppm)   Aniso(ppm)  Asym    Cq(MHz)    Eta  |
  |    O           1     -320.61       6.54      1.00  -6.672E-02   0.19 |
  |    O           2     -320.37      -9.74      0.43  -6.727E-02   0.48 |
  |    O           3     -320.16     -13.60      0.62  -4.783E-02   0.24 |
  |    O           4     -321.14     -10.51      0.51  -8.903E-02   0.24 |
  |    O           5     -319.82     -10.56      0.43  -3.190E-02   0.31 |
  |    O           6     -318.95       8.50      0.84  -4.552E-02   0.12 |
  |    O           7     -319.60       9.80      0.80  -4.698E-02   0.42 |
  |    O           8     -319.37     -12.34      0.12  -6.324E-02   0.18 |
  |    O           9      -85.19      87.83      0.10  -3.236E+00   0.06 |
  |    O          10      -16.19      37.05      0.72   3.945E+00   0.85 |
  |    O          11        0.24     -70.92      0.83   3.734E+00   0.99 |
  |    O          12      -10.95      57.27      0.97   3.759E+00   0.96 |
  |    O          13       -6.37     -58.01      1.00   3.786E+00   0.97 |
  |    O          14      -11.24      56.74      0.86   3.810E+00   0.93 |
  |    O          15      -84.31      92.26      0.15  -3.181E+00   0.07 |
  |    O          16      -15.72      37.25      0.91   3.891E+00   0.88 |
  |    O          17      -15.99     -45.99      0.41   3.788E+00   0.97 |
  |    O          18       -8.78      57.91      0.86   3.828E+00   0.94 |
  |    O          19      -85.17      78.67      0.06  -3.253E+00   0.09 |
  |    O          20      -88.53      87.10      0.13  -3.187E+00   0.07 |
  |    O          21      -12.26     -41.67      0.61   3.874E+00   0.93 |
  |    O          22      -15.48     -38.11      0.89   3.891E+00   0.89 |
  |    O          23      -82.80      87.75      0.20  -3.110E+00   0.03 |
  |    O          24      -10.21      58.95      0.85   3.806E+00   0.93 |
  |    O          25       -4.35     -58.29      0.98   3.808E+00   0.98 |
  |    O          26      -19.14     -42.88      0.65   3.821E+00   0.92 |
  |    O          27     -158.42     142.17      0.81   1.055E+00   0.60 |
  |    O          28      -19.84      38.55      0.67   3.920E+00   0.85 |
  |    O          29      -14.09     -45.29      0.44   3.811E+00   0.96 |
  |    O          30      -10.20      58.30      0.68   3.865E+00   0.91 |
  |    O          31      -81.45      88.60      0.16  -3.159E+00   0.06 |
  |    O          32      -16.07     -42.57      0.67   3.835E+00   0.91 |
  |    O          33      -20.09      38.12      0.64   3.921E+00   0.85 |
  |    O          34      -19.30     -43.20      0.64   3.820E+00   0.92 |
  |    O          35     -159.81     148.40      0.80   1.020E+00   0.68 |
  |    O          36      -15.51     -45.17      0.40   3.809E+00   0.97 |
  |    O          37      -14.16     -40.88      0.62   3.871E+00   0.94 |
  |    O          38     -160.04     139.99      0.82   1.013E+00   0.61 |
  |    O          39      -17.67     -43.25      0.57   3.829E+00   0.94 |
  |    O          40      -89.25      78.38      0.05  -3.248E+00   0.08 |
  |    O          41      -18.74     -45.30      0.41   3.773E+00   0.96 |
  |    O          42      -88.62      79.45      0.14  -3.271E+00   0.10 |
  |    O          43      -88.65      93.27      0.06  -3.195E+00   0.06 |
  |    O          44       -9.81      56.69      0.89   3.817E+00   0.94 |
  |    O          45     -161.05     150.95      0.85   1.055E+00   0.66 |
  |    O          46       -8.22     -57.33      0.99   3.784E+00   0.98 |
  |    O          47      -15.35      36.22      0.88   3.905E+00   0.89 |
  |    O          48      -87.11      88.62      0.17  -3.146E+00   0.04 |
  |    O          49      -18.63     -42.18      0.65   3.828E+00   0.93 |
  |    O          50      -88.67      86.83      0.28  -3.205E+00   0.08 |
  |    O          51      -80.99      88.19      0.20  -3.126E+00   0.03 |
  |    O          52      -84.60      87.03      0.17  -3.188E+00   0.04 |
  |    O          53      -18.30     -37.19      0.94   3.883E+00   0.90 |
  |    O          54      -89.64      86.01      0.12  -3.205E+00   0.06 |
  |    O          55      -86.06      89.37      0.11  -3.212E+00   0.06 |
  |    O          56      -85.64      88.44      0.17  -3.149E+00   0.04 |
  |    Zr          1     1614.23    -114.10      0.12  -3.437E+01   0.12 |
  |    Zr          2     1619.08    -114.92      0.11  -3.552E+01   0.05 |
  |    Zr          3     1619.06    -113.31      0.11  -3.544E+01   0.08 |
  |    Zr          4     1633.15    -119.80      0.11  -3.664E+01   0.12 |
  |    Sn          1     3243.97     -64.41      0.34   1.174E+02   0.08 |
  |    Sn          2     3234.14     -65.76      0.21   1.147E+02   0.19 |
  |    Sn          3     3243.76     -63.33      0.40   1.173E+02   0.09 |
  |    Sn          4     3238.14     -44.90      0.12   1.205E+02   0.07 |
  |    Sn          5     3243.71     -64.53      0.24   1.181E+02   0.23 |
  |    Sn          6     3244.79     -63.25      0.43   1.180E+02   0.11 |
  |    Sn          7     3245.54     -61.72      0.17   1.204E+02   0.15 |
  |    Sn          8     3245.64     -59.49      0.10   1.202E+02   0.12 |
  |    Sn          9     3254.13     -63.86      0.34   1.215E+02   0.13 |
  |    Sn         10     3245.96     -62.36      0.34   1.179E+02   0.14 |
  |    Sn         11     3252.64     -61.43      0.52   1.212E+02   0.28 |
  |    Sn         12     3235.84     -63.22      0.13   1.145E+02   0.12 |
  |    La          1     4551.91     395.78      0.06  -7.686E+01   0.12 |
  |    La          2     4560.39     386.09      0.04  -7.777E+01   0.09 |
  |    La          3     4653.67     632.46      0.01  -8.467E+01   0.01 |
  |    La          4     4646.86     660.57      0.09  -8.410E+01   0.14 |
  |    La          5     4601.70     523.06      0.07  -8.011E+01   0.06 |
  |    La          6     4561.36     382.95      0.04  -7.765E+01   0.09 |
  |    La          7     4600.59     551.62      0.07  -8.146E+01   0.19 |
  |    La          8     4501.32     229.99      0.00  -7.178E+01   0.02 |
  |    La          9     4600.91     517.30      0.08  -7.961E+01   0.08 |
  |    La         10     4607.60     508.43      0.07  -8.101E+01   0.07 |
  |    La         11     4552.98     392.09      0.06  -7.674E+01   0.10 |
  |    La         12     4609.86     515.47      0.07  -8.121E+01   0.07 |
  |    La         13     4545.03     401.15      0.07  -7.542E+01   0.12 |
  |    La         14     4552.74     394.58      0.05  -7.719E+01   0.11 |
  |    La         15     4511.16     221.76      0.01  -7.304E+01   0.03 |
  |    La         16     4593.02     518.27      0.09  -7.786E+01   0.07 |
  ========================================================================
 
 *********************** Forces ***********************
 *                                                    *
 *            Cartesian components (eV/A)             *
 * -------------------------------------------------- *
 *                   x            y            z      *
 *                                                    *
 * O         1     -0.00125      0.00052     -0.00004 *
 * O         2     -0.00107     -0.00040     -0.00217 *
 * O         3      0.00840     -0.00024     -0.00029 *
 * O         4     -0.00536      0.00313     -0.00462 *
 * O         5      0.00415      0.00113      0.00229 *
 * O         6     -0.00262     -0.00005      0.00326 *
 * O         7      0.00233      0.01178      0.00198 *
 * O         8      0.00269     -0.00161     -0.00047 *
 * O         9      0.00378      0.02262      0.02108 *
 * O        10     -0.00179      0.00564     -0.00438 *
 * O        11     -0.01235      0.00104      0.00567 *
 * O        12      0.00908      0.00481      0.00026 *
 * O        13      0.00599      0.01282      0.00129 *
 * O        14     -0.00089      0.00042     -0.00597 *
 * O        15      0.01761     -0.00120     -0.02299 *
 * O        16     -0.00250      0.00076     -0.00832 *
 * O        17      0.00786     -0.00132      0.00836 *
 * O        18      0.00477      0.00227     -0.00485 *
 * O        19      0.01846     -0.01732     -0.00540 *
 * O        20      0.01643      0.02378      0.00406 *
 * O        21      0.00730      0.00894     -0.00568 *
 * O        22     -0.00059     -0.00174      0.00380 *
 * O        23     -0.01922      0.00595     -0.02386 *
 * O        24     -0.00324      0.00598      0.00369 *
 * O        25      0.01263      0.00384     -0.00094 *
 * O        26     -0.00152     -0.00224      0.00369 *
 * O        27     -0.00513     -0.01085     -0.00581 *
 * O        28     -0.00030      0.00357      0.00656 *
 * O        29     -0.00479     -0.00046     -0.00898 *
 * O        30     -0.00153      0.00970      0.00218 *
 * O        31     -0.01530      0.01842     -0.00522 *
 * O        32      0.00571      0.00578     -0.00389 *
 * O        33      0.00028      0.00797     -0.01113 *
 * O        34     -0.00087      0.00205     -0.00671 *
 * O        35     -0.00677      0.00570     -0.00193 *
 * O        36     -0.00804     -0.00829     -0.00360 *
 * O        37      0.00373     -0.00169      0.00930 *
 * O        38     -0.00773     -0.01873     -0.00230 *
 * O        39      0.00344     -0.00172      0.00769 *
 * O        40      0.02369      0.00324      0.02874 *
 * O        41      0.00821      0.00019      0.00642 *
 * O        42     -0.01387     -0.01721      0.01980 *
 * O        43     -0.02217     -0.02553     -0.00148 *
 * O        44      0.00382     -0.00861     -0.00644 *
 * O        45      0.00158     -0.00359     -0.00012 *
 * O        46     -0.00865     -0.00443      0.00249 *
 * O        47     -0.00785      0.01005     -0.00296 *
 * O        48      0.01455      0.02673     -0.00157 *
 * O        49      0.00347      0.00776     -0.00292 *
 * O        50     -0.01381     -0.00500     -0.02618 *
 * O        51     -0.00356      0.01130     -0.01424 *
 * O        52     -0.00549     -0.02082     -0.02005 *
 * O        53     -0.00683      0.00080      0.00609 *
 * O        54     -0.01983     -0.01845     -0.00039 *
 * O        55     -0.02292     -0.00735      0.01697 *
 * O        56      0.01928      0.00142      0.02536 *
 * Zr        1      0.03567     -0.02008     -0.01465 *
 * Zr        2     -0.00152      0.00972     -0.01110 *
 * Zr        3     -0.02254      0.00848     -0.02095 *
 * Zr        4      0.01094      0.01017     -0.00073 *
 * Sn        1      0.00528      0.01333      0.00202 *
 * Sn        2      0.00027     -0.00257      0.00166 *
 * Sn        3     -0.00486     -0.01111      0.00578 *
 * Sn        4      0.01954     -0.01663      0.02828 *
 * Sn        5      0.00128     -0.00539      0.00177 *
 * Sn        6      0.00458     -0.00033     -0.00172 *
 * Sn        7     -0.00617      0.00743     -0.02129 *
 * Sn        8     -0.00814     -0.01790      0.01324 *
 * Sn        9     -0.00556     -0.01112      0.01105 *
 * Sn       10     -0.00765     -0.00793      0.00956 *
 * Sn       11      0.00200      0.00065      0.00160 *
 * Sn       12      0.00224     -0.00063      0.00541 *
 * La        1      0.00424      0.00190     -0.00278 *
 * La        2     -0.00050      0.01043     -0.00789 *
 * La        3     -0.01910     -0.01728     -0.00196 *
 * La        4      0.00706      0.00016      0.01082 *
 * La        5     -0.01918      0.01345     -0.00322 *
 * La        6      0.00308     -0.00898      0.01003 *
 * La        7      0.00195     -0.00848      0.00802 *
 * La        8     -0.00849      0.00171     -0.00248 *
 * La        9      0.00942     -0.00181     -0.00443 *
 * La       10      0.00061      0.01155      0.00013 *
 * La       11      0.00683     -0.01212      0.00474 *
 * La       12      0.00374      0.00192      0.00333 *
 * La       13     -0.00078      0.00284      0.00332 *
 * La       14     -0.00261      0.00664     -0.00659 *
 * La       15     -0.00462      0.00377     -0.00001 *
 * La       16      0.01158     -0.01307      0.00390 *
 *                                                    *
 ******************************************************
 
 ***************** Stress Tensor *****************
 *                                               *
 *          Cartesian components (GPa)           *
 * --------------------------------------------- *
 *             x             y             z     *
 *                                               *
 *  x      0.030432      0.018102      0.003110  *
 *  y      0.018102      0.029431      0.015183  *
 *  z      0.003110      0.015183      0.023759  *
 *                                               *
 *  Pressure:   -0.0279                          *
 *                                               *
 *************************************************
 
 Pseudo atomic calculation performed for O 2s2 2p4
 
 Converged in 39 iterations to a total energy of -432.6554 eV
 
 
 Pseudo atomic calculation performed for Zr 4s2 4p6 4d2 5s2
 
 Converged in 38 iterations to a total energy of -1285.4931 eV
 
 
 Pseudo atomic calculation performed for Sn 4d10 5s2 5p2
 
 Converged in 48 iterations to a total energy of -2044.5414 eV
 
 
 Pseudo atomic calculation performed for La 5s2 5p6 5d1 6s2
 
 Converged in 34 iterations to a total energy of -968.0372 eV
 
Charge spilling parameter for spin component 1 = 0.26%
 
     Atomic Populations (Mulliken)
     -----------------------------
Species   Ion     s      p      d      f     Total  Charge (e)
==============================================================
  O        1     1.87   5.00   0.00   0.00   6.87    -0.87
  O        2     1.87   5.00   0.00   0.00   6.87    -0.87
  O        3     1.87   5.00   0.00   0.00   6.87    -0.87
  O        4     1.87   5.00   0.00   0.00   6.87    -0.87
  O        5     1.87   5.00   0.00   0.00   6.87    -0.87
  O        6     1.87   5.00   0.00   0.00   6.87    -0.87
  O        7     1.87   5.00   0.00   0.00   6.87    -0.87
  O        8     1.87   5.00   0.00   0.00   6.87    -0.87
  O        9     1.87   4.99   0.00   0.00   6.86    -0.86
  O       10     1.88   5.03   0.00   0.00   6.91    -0.91
  O       11     1.88   5.02   0.00   0.00   6.91    -0.91
  O       12     1.89   5.03   0.00   0.00   6.91    -0.91
  O       13     1.88   5.03   0.00   0.00   6.91    -0.91
  O       14     1.88   5.03   0.00   0.00   6.91    -0.91
  O       15     1.87   4.99   0.00   0.00   6.86    -0.86
  O       16     1.88   5.03   0.00   0.00   6.91    -0.91
  O       17     1.88   5.03   0.00   0.00   6.91    -0.91
  O       18     1.88   5.03   0.00   0.00   6.91    -0.91
  O       19     1.87   4.99   0.00   0.00   6.86    -0.86
  O       20     1.87   4.99   0.00   0.00   6.86    -0.86
  O       21     1.88   5.03   0.00   0.00   6.91    -0.91
  O       22     1.88   5.03   0.00   0.00   6.91    -0.91
  O       23     1.87   4.99   0.00   0.00   6.86    -0.86
  O       24     1.88   5.03   0.00   0.00   6.91    -0.91
  O       25     1.88   5.03   0.00   0.00   6.91    -0.91
  O       26     1.89   5.03   0.00   0.00   6.91    -0.91
  O       27     1.86   4.95   0.00   0.00   6.81    -0.81
  O       28     1.88   5.03   0.00   0.00   6.91    -0.91
  O       29     1.88   5.03   0.00   0.00   6.91    -0.91
  O       30     1.88   5.03   0.00   0.00   6.91    -0.91
  O       31     1.87   4.99   0.00   0.00   6.86    -0.86
  O       32     1.88   5.03   0.00   0.00   6.91    -0.91
  O       33     1.88   5.03   0.00   0.00   6.91    -0.91
  O       34     1.89   5.03   0.00   0.00   6.91    -0.91
  O       35     1.86   4.95   0.00   0.00   6.80    -0.80
  O       36     1.88   5.03   0.00   0.00   6.91    -0.91
  O       37     1.88   5.03   0.00   0.00   6.91    -0.91
  O       38     1.86   4.95   0.00   0.00   6.81    -0.81
  O       39     1.89   5.03   0.00   0.00   6.91    -0.91
  O       40     1.87   4.99   0.00   0.00   6.86    -0.86
  O       41     1.89   5.03   0.00   0.00   6.91    -0.91
  O       42     1.87   4.99   0.00   0.00   6.86    -0.86
  O       43     1.87   4.99   0.00   0.00   6.86    -0.86
  O       44     1.88   5.03   0.00   0.00   6.91    -0.91
  O       45     1.86   4.95   0.00   0.00   6.80    -0.80
  O       46     1.88   5.03   0.00   0.00   6.91    -0.91
  O       47     1.88   5.03   0.00   0.00   6.91    -0.91
  O       48     1.87   4.99   0.00   0.00   6.86    -0.86
  O       49     1.89   5.03   0.00   0.00   6.91    -0.91
  O       50     1.87   4.99   0.00   0.00   6.86    -0.86
  O       51     1.87   4.99   0.00   0.00   6.86    -0.86
  O       52     1.87   4.99   0.00   0.00   6.86    -0.86
  O       53     1.88   5.03   0.00   0.00   6.91    -0.91
  O       54     1.87   4.99   0.00   0.00   6.86    -0.86
  O       55     1.87   4.99   0.00   0.00   6.86    -0.86
  O       56     1.87   4.99   0.00   0.00   6.86    -0.86
  Zr       1     2.36   6.48   1.92   0.00  10.77     1.23
  Zr       2     2.36   6.48   1.92   0.00  10.76     1.24
  Zr       3     2.36   6.48   1.92   0.00  10.76     1.24
  Zr       4     2.36   6.47   1.92   0.00  10.75     1.25
  Sn       1     1.04   1.31  10.00   0.00  12.35     1.65
  Sn       2     1.04   1.31  10.00   0.00  12.35     1.65
  Sn       3     1.04   1.31  10.00   0.00  12.35     1.65
  Sn       4     1.04   1.31  10.00   0.00  12.34     1.66
  Sn       5     1.04   1.31  10.00   0.00  12.35     1.65
  Sn       6     1.04   1.31  10.00   0.00  12.35     1.65
  Sn       7     1.04   1.31  10.00   0.00  12.35     1.65
  Sn       8     1.04   1.31  10.00   0.00  12.35     1.65
  Sn       9     1.04   1.31  10.00   0.00  12.35     1.65
  Sn      10     1.04   1.31  10.00   0.00  12.35     1.65
  Sn      11     1.04   1.31  10.00   0.00  12.35     1.65
  Sn      12     1.04   1.31  10.00   0.00  12.35     1.65
  La       1     2.10   6.19   1.19   0.00   9.48     1.52
  La       2     2.09   6.19   1.19   0.00   9.48     1.52
  La       3     2.03   6.17   1.20   0.00   9.40     1.60
  La       4     2.04   6.17   1.20   0.00   9.40     1.60
  La       5     2.06   6.18   1.20   0.00   9.44     1.56
  La       6     2.08   6.20   1.19   0.00   9.47     1.53
  La       7     2.06   6.18   1.20   0.00   9.43     1.57
  La       8     2.13   6.20   1.19   0.00   9.52     1.48
  La       9     2.06   6.18   1.19   0.00   9.44     1.56
  La      10     2.05   6.18   1.19   0.00   9.43     1.57
  La      11     2.08   6.19   1.19   0.00   9.47     1.53
  La      12     2.05   6.18   1.19   0.00   9.43     1.57
  La      13     2.09   6.18   1.19   0.00   9.47     1.53
  La      14     2.09   6.19   1.19   0.00   9.47     1.53
  La      15     2.12   6.21   1.19   0.00   9.52     1.48
  La      16     2.07   6.17   1.20   0.00   9.44     1.56
==============================================================
 
            Bond              Population      Length (A)
============================================================
         O 42 -- Sn 9              0.34        2.09941
         O 9  -- Sn 11             0.35        2.09990
         O 10 -- Sn 4              0.34        2.10172
         O 55 -- Sn 5              0.34        2.10189
         O 52 -- Sn 11             0.35        2.10221
         O 19 -- Sn 7              0.35        2.10267
         O 10 -- Sn 6              0.34        2.10283
         O 40 -- Sn 1              0.34        2.10357
         O 43 -- Sn 10             0.34        2.10389
         O 47 -- Sn 4              0.34        2.10459
         O 47 -- Sn 2              0.34        2.10462
         O 15 -- Sn 8              0.34        2.10471
         O 28 -- Sn 3              0.34        2.10504
         O 20 -- Sn 3              0.34        2.10532
         O 50 -- Sn 9              0.34        2.10556
         O 21 -- Sn 8              0.34        2.10569
         O 16 -- Sn 12             0.34        2.10591
         O 16 -- Sn 4              0.34        2.10610
         O 21 -- Sn 5              0.34        2.10639
         O 22 -- Sn 7              0.34        2.10650
         O 33 -- Sn 1              0.34        2.10651
         O 33 -- Sn 8              0.33        2.10708
         O 22 -- Sn 10             0.33        2.10753
         O 37 -- Sn 7              0.34        2.10794
         O 37 -- Sn 2              0.34        2.10807
         O 28 -- Sn 7              0.33        2.10829
         O 54 -- Sn 6              0.34        2.10857
         O 53 -- Sn 5              0.33        2.10935
         O 32 -- Sn 8              0.34        2.10961
         O 31 -- Sn 4              0.34        2.10975
         O 29 -- Sn 10             0.34        2.11008
         O 45 -- Zr 4              0.40        2.11079
         O 53 -- Sn 1              0.33        2.11085
         O 45 -- Zr 1              0.41        2.11105
         O 56 -- Sn 7              0.34        2.11154
         O 36 -- Sn 12             0.34        2.11187
         O 51 -- Sn 4              0.34        2.11190
         O 48 -- Sn 8              0.34        2.11231
         O 29 -- Sn 3              0.34        2.11231
         O 32 -- Sn 12             0.34        2.11235
         O 30 -- Sn 11             0.33        2.11300
         O 30 -- Sn 9              0.33        2.11359
         O 39 -- Sn 2              0.34        2.11376
         O 43 -- Zr 2              0.43        2.11377
         O 49 -- Sn 2              0.34        2.11387
         O 39 -- Sn 6              0.33        2.11407
         O 36 -- Sn 1              0.34        2.11413
         O 26 -- Sn 12             0.34        2.11427
         O 17 -- Sn 6              0.34        2.11431
         O 49 -- Sn 3              0.33        2.11435
         O 27 -- Zr 3              0.42        2.11441
         O 34 -- Sn 10             0.33        2.11442
         O 25 -- Sn 6              0.33        2.11445
         O 25 -- Sn 9              0.34        2.11455
         O 17 -- Sn 12             0.33        2.11478
         O 23 -- Sn 4              0.34        2.11480
         O 18 -- Sn 5              0.33        2.11503
         O 26 -- Sn 5              0.33        2.11573
         O 34 -- Sn 2              0.33        2.11591
         O 44 -- Sn 11             0.33        2.11598
         O 13 -- Sn 10             0.33        2.11603
         O 44 -- Sn 1              0.33        2.11639
         O 42 -- Zr 2              0.44        2.11644
         O 14 -- Sn 3              0.33        2.11652
         O 35 -- Zr 2              0.42        2.11660
         O 13 -- Sn 9              0.34        2.11660
         O 18 -- Sn 9              0.33        2.11667
         O 24 -- Sn 6              0.33        2.11700
         O 15 -- Zr 4              0.44        2.11735
         O 14 -- Sn 11             0.33        2.11746
         O 41 -- Sn 12             0.33        2.11748
         O 55 -- Zr 2              0.43        2.11751
         O 50 -- Zr 1              0.44        2.11766
         O 38 -- Zr 3              0.42        2.11778
         O 24 -- Sn 11             0.33        2.11783
         O 9  -- Zr 3              0.43        2.11796
         O 46 -- Sn 3              0.33        2.11804
         O 41 -- Sn 2              0.33        2.11882
         O 35 -- Zr 4              0.42        2.11894
         O 52 -- Zr 1              0.43        2.11927
         O 46 -- Sn 1              0.33        2.11930
         O 40 -- Zr 3              0.44        2.11987
         O 20 -- Zr 3              0.43        2.12013
         O 12 -- Sn 10             0.33        2.12039
         O 27 -- Zr 4              0.41        2.12041
         O 31 -- Zr 4              0.45        2.12127
         O 54 -- Zr 1              0.44        2.12150
         O 19 -- Zr 4              0.44        2.12193
         O 12 -- Sn 5              0.33        2.12207
         O 56 -- Zr 1              0.44        2.12305
         O 11 -- Sn 8              0.33        2.12336
         O 48 -- Zr 1              0.44        2.12339
         O 51 -- Zr 2              0.45        2.12413
         O 23 -- Zr 3              0.45        2.12437
         O 11 -- Sn 7              0.33        2.12492
         O 38 -- Zr 2              0.42        2.12496
         O 4  -- La 4              0.18        2.35391
         O 3  -- La 3              0.18        2.35397
         O 8  -- La 4              0.18        2.35428
         O 7  -- La 7              0.18        2.35489
         O 7  -- La 3              0.19        2.35514
         O 2  -- La 7              0.17        2.35527
         O 1  -- La 10             0.17        2.35567
         O 3  -- La 5              0.17        2.35632
         O 2  -- La 12             0.18        2.35651
         O 8  -- La 5              0.17        2.35654
         O 6  -- La 12             0.18        2.35655
         O 6  -- La 9              0.17        2.35708
         O 4  -- La 9              0.17        2.35715
         O 3  -- La 14             0.17        2.35752
         O 5  -- La 6              0.16        2.35753
         O 5  -- La 2              0.16        2.35755
         O 8  -- La 10             0.19        2.35762
         O 4  -- La 16             0.16        2.35769
         O 1  -- La 11             0.16        2.35782
         O 6  -- La 14             0.17        2.35793
         O 7  -- La 16             0.16        2.35811
         O 1  -- La 1              0.16        2.35822
         O 8  -- La 13             0.17        2.35849
         O 6  -- La 1              0.17        2.35870
         O 7  -- La 11             0.17        2.35874
         O 2  -- La 13             0.16        2.35898
         O 4  -- La 6              0.19        2.35966
         O 2  -- La 2              0.18        2.35988
         O 5  -- La 15             0.16        2.36142
         O 5  -- La 8              0.15        2.36158
         O 1  -- La 15             0.17        2.36232
         O 3  -- La 8              0.17        2.36242
         O 45 -- La 5              0.13        2.65373
         O 35 -- La 16             0.12        2.65415
         O 39 -- La 8              0.23        2.65989
         O 38 -- La 4              0.13        2.66102
         O 17 -- La 15             0.23        2.66125
         O 27 -- La 9              0.13        2.66244
         O 21 -- La 8              0.23        2.66263
         O 24 -- La 13             0.23        2.66294
         O 38 -- La 10             0.14        2.66364
         O 44 -- La 13             0.24        2.66381
         O 37 -- La 8              0.24        2.66390
         O 42 -- La 16             0.17        2.66417
         O 34 -- La 11             0.23        2.66422
         O 11 -- La 8              0.25        2.66434
         O 32 -- La 14             0.23        2.66437
         O 41 -- La 2              0.24        2.66450
         O 33 -- La 13             0.23        2.66456
         O 29 -- La 15             0.23        2.66462
         O 49 -- La 1              0.24        2.66473
         O 18 -- La 8              0.24        2.66523
         O 27 -- La 12             0.14        2.66549
         O 50 -- La 5              0.18        2.66555
         O 53 -- La 1              0.23        2.66566
         O 22 -- La 14             0.23        2.66591
         O 36 -- La 15             0.24        2.66593
         O 10 -- La 13             0.22        2.66615
         O 11 -- La 14             0.25        2.66661
         O 9  -- La 11             0.17        2.66668
         O 55 -- La 1              0.18        2.66714
         O 13 -- La 11             0.24        2.66724
         O 25 -- La 8              0.24        2.66746
         O 13 -- La 15             0.24        2.66774
         O 46 -- La 1              0.25        2.66784
         O 45 -- La 3              0.13        2.66784
         O 43 -- La 14             0.17        2.66796
         O 12 -- La 6              0.24        2.66823
         O 30 -- La 11             0.24        2.66831
         O 14 -- La 16             0.23        2.66855
         O 40 -- La 9              0.17        2.66899
         O 29 -- La 6              0.23        2.66908
         O 46 -- La 15             0.25        2.66932
         O 36 -- La 2              0.24        2.66942
         O 20 -- La 7              0.17        2.66954
         O 54 -- La 7              0.17        2.66957
         O 26 -- La 5              0.23        2.66972
         O 12 -- La 9              0.24        2.66985
         O 28 -- La 16             0.22        2.66993
         O 25 -- La 15             0.24        2.67010
         O 15 -- La 13             0.17        2.67015
         O 30 -- La 16             0.23        2.67037
         O 14 -- La 6              0.24        2.67099
         O 16 -- La 14             0.22        2.67103
         O 47 -- La 1              0.23        2.67108
         O 22 -- La 9              0.22        2.67134
         O 26 -- La 10             0.23        2.67141
         O 53 -- La 9              0.23        2.67176
         O 35 -- La 3              0.14        2.67197
         O 48 -- La 6              0.19        2.67236
         O 41 -- La 12             0.24        2.67240
         O 31 -- La 13             0.18        2.67256
         O 52 -- La 2              0.18        2.67263
         O 17 -- La 10             0.24        2.67274
         O 32 -- La 12             0.23        2.67304
         O 44 -- La 2              0.24        2.67307
         O 47 -- La 11             0.23        2.67321
         O 49 -- La 12             0.24        2.67335
         O 52 -- La 6              0.18        2.67368
         O 54 -- La 3              0.18        2.67399
         O 16 -- La 5              0.22        2.67416
         O 20 -- La 12             0.18        2.67424
         O 40 -- La 4              0.17        2.67429
         O 18 -- La 5              0.24        2.67436
         O 28 -- La 7              0.23        2.67467
         O 56 -- La 2              0.19        2.67488
         O 50 -- La 4              0.17        2.67502
         O 24 -- La 10             0.24        2.67505
         O 56 -- La 7              0.18        2.67510
         O 37 -- La 2              0.23        2.67511
         O 21 -- La 6              0.22        2.67526
         O 23 -- La 11             0.18        2.67556
         O 19 -- La 16             0.17        2.67593
         O 34 -- La 3              0.23        2.67652
         O 10 -- La 7              0.22        2.67724
         O 42 -- La 4              0.17        2.67748
         O 19 -- La 9              0.18        2.67754
         O 9  -- La 10             0.18        2.67777
         O 51 -- La 1              0.19        2.67867
         O 39 -- La 3              0.24        2.67891
         O 23 -- La 7              0.19        2.67897
         O 51 -- La 14             0.19        2.67955
         O 33 -- La 4              0.22        2.67995
         O 55 -- La 10             0.18        2.68008
         O 48 -- La 4              0.18        2.68049
         O 43 -- La 3              0.18        2.68054
         O 15 -- La 12             0.18        2.68411
         O 31 -- La 5              0.18        2.68484
         O 10 -- O 24             -0.06        2.79285
         O 15 -- O 33             -0.06        2.79338
         O 22 -- O 43             -0.06        2.79342
         O 16 -- O 32             -0.05        2.79420
         O 30 -- O 42             -0.06        2.79437
         O 10 -- O 54             -0.06        2.79437
         O 53 -- O 55             -0.06        2.79517
         O 16 -- O 26             -0.05        2.79525
         O 47 -- O 49             -0.05        2.79552
         O 37 -- O 39             -0.05        2.79610
         O 34 -- O 47             -0.05        2.79612
         O 42 -- O 50             -0.06        2.79622
         O 19 -- O 28             -0.06        2.79647
         O 20 -- O 28             -0.06        2.79655
         O 14 -- O 28             -0.05        2.79657
         O 9  -- O 30             -0.06        2.79684
         O 10 -- O 31             -0.06        2.79685
         O 33 -- O 44             -0.05        2.79685
         O 18 -- O 21             -0.05        2.79769
         O 40 -- O 53             -0.06        2.79807
         O 33 -- O 40             -0.06        2.79881
         O 19 -- O 22             -0.06        2.80002
         O 13 -- O 34             -0.05        2.80318
         O 12 -- O 22             -0.05        2.80328
         O 28 -- O 56             -0.06        2.80378
         O 24 -- O 44             -0.05        2.80390
         O 18 -- O 50             -0.06        2.80408
         O 46 -- O 49             -0.05        2.80411
         O 33 -- O 48             -0.06        2.80413
         O 36 -- O 41             -0.05        2.80425
         O 25 -- O 39             -0.05        2.80472
         O 17 -- O 36             -0.05        2.80497
         O 34 -- O 43             -0.06        2.80516
         O 37 -- O 41             -0.05        2.80553
         O 46 -- O 53             -0.05        2.80560
         O 21 -- O 48             -0.06        2.80564
         O 14 -- O 30             -0.05        2.80568
         O 32 -- O 41             -0.05        2.80580
         O 26 -- O 55             -0.06        2.80581
         O 47 -- O 51             -0.06        2.80611
         O 12 -- O 29             -0.05        2.80621
         O 20 -- O 49             -0.06        2.80624
         O 12 -- O 53             -0.05        2.80634
         O 11 -- O 21             -0.05        2.80635
         O 23 -- O 47             -0.06        2.80639
         O 14 -- O 52             -0.05        2.80651
         O 39 -- O 54             -0.06        2.80654
         O 16 -- O 51             -0.06        2.80654
         O 11 -- O 32             -0.05        2.80659
         O 37 -- O 56             -0.05        2.80670
         O 10 -- O 23             -0.06        2.80674
         O 18 -- O 26             -0.05        2.80677
         O 17 -- O 26             -0.05        2.80681
         O 44 -- O 52             -0.05        2.80693
         O 13 -- O 29             -0.05        2.80694
         O 18 -- O 25             -0.05        2.80709
         O 12 -- O 21             -0.05        2.80729
         O 11 -- O 37             -0.05        2.80733
         O 9  -- O 24             -0.06        2.80743
         O 17 -- O 25             -0.05        2.80749
         O 13 -- O 30             -0.05        2.80773
         O 29 -- O 46             -0.05        2.80787
         O 15 -- O 32             -0.05        2.80801
         O 11 -- O 22             -0.05        2.80828
         O 41 -- O 49             -0.05        2.80846
         O 36 -- O 46             -0.05        2.80860
         O 14 -- O 29             -0.05        2.80861
         O 16 -- O 31             -0.05        2.80876
         O 36 -- O 44             -0.05        2.80925
         O 34 -- O 39             -0.05        2.80972
         O 17 -- O 24             -0.05        2.80984
         O 13 -- O 25             -0.05        2.81009
         O 35 -- O 42             -0.03        2.81063
         O 45 -- O 50             -0.03        2.81215
         O 35 -- O 45             -0.03        2.81938
         O 19 -- O 35             -0.03        2.81949
         O 38 -- O 40             -0.03        2.82141
         O 27 -- O 40             -0.03        2.82149
         O 38 -- O 42             -0.03        2.82202
         O 19 -- O 27             -0.03        2.82386
         O 45 -- O 54             -0.03        2.82454
         O 31 -- O 45             -0.03        2.82477
         O 9  -- O 38             -0.03        2.82588
         O 20 -- O 27             -0.03        2.82638
         O 38 -- O 55             -0.03        2.82705
         O 15 -- O 27             -0.03        2.82910
         O 35 -- O 43             -0.03        2.82958
         O 54 -- O 56             -0.03        2.83075
         O 9  -- O 23             -0.03        2.83212
         O 15 -- O 31             -0.03        2.83230
         O 48 -- O 50             -0.03        2.83250
         O 48 -- O 52             -0.03        2.83325
         O 20 -- O 23             -0.03        2.83347
         O 52 -- O 56             -0.03        2.83433
         O 51 -- O 55             -0.03        2.83437
         O 43 -- O 51             -0.03        2.83470
============================================================
 

Writing analysis data to 18.castep_bin

Writing model to 18.check
 
 A BibTeX formatted list of references used in this run has been written to 
 18.bib
 
Initialisation time =     54.83 s
Calculation time    =  34623.70 s
Finalisation time   =    101.74 s
Total time          =  34780.28 s
Peak Memory Use     = 2843596 kB
  
Overall parallel efficiency rating: Good (76%)                                  
  
Data was distributed by:-
G-vector (4-way); efficiency rating: Good (77%)                                 
k-point (14-way); efficiency rating: Excellent (98%)                            
