 +-------------------------------------------------+
 |                                                 |
 |      CCC   AA    SSS  TTTTT  EEEEE  PPPP        |
 |     C     A  A  S       T    E      P   P       |
 |     C     AAAA   SS     T    EEE    PPPP        |
 |     C     A  A     S    T    E      P           |
 |      CCC  A  A  SSS     T    EEEEE  P           |
 |                                                 |
 +-------------------------------------------------+
 |                                                 |
 | Welcome to Academic Release CASTEP version 16.11|          
 | Ab Initio Total Energy Program                  |
 |                                                 |
 | Authors:                                        |
 | M. Segall, M. Probert, C. Pickard, P. Hasnip,   |
 | S. Clark, K. Refson, J. R. Yates, M. Payne      |
 |                                                 |
 | Contributors:                                   |
 | P. Lindan, P. Haynes, J. White, V. Milman,      |
 | N. Govind, M. Gibson, P. Tulip, V. Cocula,      |
 | B. Montanari, D. Quigley, M. Glover,            |
 | L. Bernasconi, A. Perlov, M. Plummer,           |
 | E. McNellis, J. Meyer, J. Gale, D. Jochym       |
 | J. Aarons, B. Walker, R. Gillen, D. Jones       |
 | T. Green, I. J. Bush, C. J. Armstrong,          |
 | E. J. Higgins, E. L. Brown, M. S. McFly         |
 |                                                 |
 | Copyright (c) 2000 - 2015                       |
 |                                                 |
 |     Distributed under the terms of an           |
 |     Agreement between the United Kingdom        |
 |     Car-Parrinello (UKCP) Consortium,           |
 |     Daresbury Laboratory and Accelrys, Inc.     |
 |                                                 |
 | Please cite                                     |
 |                                                 |
 |     "First principles methods using CASTEP"     |
 |                                                 |
 |         Zeitschrift fuer Kristallographie       |
 |           220(5-6) pp. 567-570 (2005)           |
 |                                                 |
 | S. J. Clark, M. D. Segall, C. J. Pickard,       |
 | P. J. Hasnip, M. J. Probert, K. Refson,         |
 | M. C. Payne                                     |
 |                                                 |
 |       in all publications arising from          |
 |              your use of CASTEP                 |
 |                                                 |
 +-------------------------------------------------+
 
 
 Compiled for linux_x86_64_ifort16 on Sat, 23 Jul 2016 23:44:54 +0100
 from code version 
 203e84763863+ Castep161_branch Fri, 04 Mar 2016 19:21:07 +0000
 Compiler: Intel Fortran 16.0.3.210; Optimisation: fast
 MATHLIBS: Intel MKL(11.3.3) (LAPACK version 3.6.0)
 FFT Lib : mkl
 Fundamental constants values: CODATA 2010
 
 Run started: Tue, 06 Mar 2018 20:48:37 +0000
 +-------------------------------------------------+
 |                                                 |
 |           N   N    M   M    RRRR                |
 |           NN  N    MM MM    R   R               |
 |           N N N    M M M    RRRR                |
 |           N  NN    M   M    R  R                |
 |           N   N    M   M    R   R               |
 |                                                 |
 +-------------------------------------------------+
 |                                                 |
 | Welcome to Materials Studio CASTEP-NMR          |
 |                                                 |
 | Authors:                                        |
 | J.R. Yates, C.J. Pickard, F. Mauri              |
 |                                                 |
 | Contributors:                                   |
 | T.F.G. Green, S.A. Joyce                        |
 |                                                 |
 | Copyright (c) 2004 - 2015                       |
 |                                                 |
 | Please cite the appropriate publications in all |
 | work arising from your use of CASTEP NMR.       |
 |                                                 |
 | For NMR Shielding Tensors cite:                 |
 |    "All-electron magnetic response with         |
 |    pseudopotentials: NMR chemical shifts",      |
 |    C. J. Pickard, F. Mauri;                     |
 |    Physical Review B63 245101 (2001), and       |
 |                                                 |
 |    "Calculation of NMR Chemical Shifts          |
 |    for extended systems using                   |
 |    Ultrasoft Pseudopotentials",                 |
 |    J. R. Yates, C. J. Pickard and F. Mauri      |
 |    Physical Review B76 024401 (2007)            |
 |                                                 |
 | For Electric Field Gradients cite:              |
 |   "Accurate First Principles Prediction of 17O  |
 |    NMR Parameters in SiO2: Assignment of the    |
 |    Zeolite Ferrierite Spectrum"                 |
 |    M. Profeta, F. Mauri and C. J. Pickard       |
 |    J. Amer. Chem. Soc. 125 541 (2003)           |
 |                                                 |
 | For Spin-Spin (J) Couplings cite:               |
 |   "A first principles theory of NMR J-coupling  |
 |   in solid-state systems"                       |
 |   S.A. Joyce, J.R. Yates, C.J. Pickard, F. Mauri|
 |   J. Chem. Phys. 127 204107 (2007)              |
 |                                                 |
 |   "Relativistic NMR J-coupling with ultrasoft   |
 |   pseudopotentials and the zeroth-order regular |
 |   approximation"                                |
 |   T.F.G. Green and J.R. Yates                   |
 |   J. Chem. Phys. 140 234106 (2014)              |
 |                                                 |
 +-------------------------------------------------+
 
 
 Atomic calculation performed for O: 1s2 2s2 2p4
 
 Converged in 44 iterations to an ae energy of -2040.855 eV
 
 
 Atomic calculation performed for O: 1s2 2s2 2p4
 
 Exceeded max iterations: converged to 0.000000062 eV
 
   ============================================================                
   | Pseudopotential Report - Date of generation  6-03-2018   |                
   ------------------------------------------------------------                
   | Element: O Ionic charge:  6.00 Level of theory: PBE      |                
   | Atomic Solver: ZORA (scalar)                             |                
   |                                                          |                
   |               Reference Electronic Structure             |                
   |         Orbital         Occupation         Energy        |                
   |            2s              2.000           -0.881        |                
   |            2p              4.000           -0.332        |                
   |                                                          |                
   |                 Pseudopotential Definition               |                
   |        Beta     l      e      Rc     scheme   norm       |                
   |          1      0   -0.881   1.100     qc      0         |                
   |          2      0    0.250   1.100     qc      0         |                
   |          3      1   -0.332   1.100     qc      0         |                
   |          4      1    0.250   1.100     qc      0         |                
   |         loc     2    0.000   1.100     pn      0         |                
   |                                                          |                
   | Augmentation charge Rinner = 0.769                       |                
   | Partial core correction Rc = 0.769                       |                
   ------------------------------------------------------------                
   | "2|1.1|15|18|20|20:21(qc=7)"                             |                
   ------------------------------------------------------------                
   |      Author: Chris J. Pickard, Cambridge University      |                
   ============================================================                
 
 Atomic calculation performed for Zr: 1s2 2s2 2p6 3s2 3p6 3d10 4s2 4p6 4d2 5s2
 
 Converged in 53 iterations to an ae energy of -97719.888 eV
 
 
 Atomic calculation performed for Zr: 1s2 2s2 2p6 3s2 3p6 3d10 4s2 4p6 4d2 5s2
 
 Exceeded max iterations: converged to 0.000000970 eV
 
 Warning: ion_atom_descreen_psp: negative charge density encountered
   ============================================================                
   | Pseudopotential Report - Date of generation  6-03-2018   |                
   ------------------------------------------------------------                
   | Element: Zr Ionic charge: 12.00 Level of theory: PBE     |                
   | Atomic Solver: ZORA (scalar)                             |                
   |                                                          |                
   |               Reference Electronic Structure             |                
   |         Orbital         Occupation         Energy        |                
   |            4s              2.000           -2.003        |                
   |            4p              6.000           -1.193        |                
   |            5s              2.000           -0.163        |                
   |            4d              2.000           -0.132        |                
   |                                                          |                
   |                 Pseudopotential Definition               |                
   |        Beta     l      e      Rc     scheme   norm       |                
   |          1      0   -2.003   2.105     qc      0         |                
   |          2      0   -0.163   2.105     qc      0         |                
   |          3      0    0.250   2.105     qc      0         |                
   |          4      1   -1.193   2.105     qc      0         |                
   |          5      1    0.250   2.105     qc      0         |                
   |          6      2   -0.132   2.105     qc      0         |                
   |          7      2    0.250   2.105     qc      0         |                
   |         loc     3    0.000   2.105     pn      0         |                
   |                                                          |                
   | Augmentation charge Rinner = 1.471                       |                
   | Partial core correction Rc = 1.471                       |                
   ------------------------------------------------------------                
   | "3|2.1|7|8|9|40U:50:41:42"                               |                
   ------------------------------------------------------------                
   |      Author: Chris J. Pickard, Cambridge University      |                
   ============================================================                
 
 Atomic calculation performed for Sn:
 1s2 2s2 2p6 3s2 3p6 3d10 4s2 4p6 4d10 5s2 5p2
 
 Converged in 58 iterations to an ae energy of -167539.320 eV
 
 
 Atomic calculation performed for Sn:
 1s2 2s2 2p6 3s2 3p6 3d10 4s2 4p6 4d10 5s2 5p2
 
 Exceeded max iterations: converged to 0.000001154 eV
 
   ============================================================                
   | Pseudopotential Report - Date of generation  6-03-2018   |                
   ------------------------------------------------------------                
   | Element: Sn Ionic charge: 14.00 Level of theory: PBE     |                
   | Atomic Solver: ZORA (scalar)                             |                
   |                                                          |                
   |               Reference Electronic Structure             |                
   |         Orbital         Occupation         Energy        |                
   |            4d             10.000           -0.950        |                
   |            5s              2.000           -0.388        |                
   |            5p              2.000           -0.136        |                
   |                                                          |                
   |                 Pseudopotential Definition               |                
   |        Beta     l      e      Rc     scheme   norm       |                
   |          1      0   -0.388   2.199     qc      0         |                
   |          2      0    0.250   2.199     qc      0         |                
   |          3      1   -0.136   2.199     qc      0         |                
   |          4      1    0.250   2.199     qc      0         |                
   |          5      2   -0.950   2.199     qc      0         |                
   |          6      2    0.250   2.199     qc      0         |                
   |         loc     3    0.000   2.199     pn      0         |                
   |                                                          |                
   | Augmentation charge Rinner = 1.537                       |                
   | Partial core correction Rc = 1.537                       |                
   ------------------------------------------------------------                
   | "3|2.2|7|8|9|50:51:42"                                   |                
   ------------------------------------------------------------                
   |      Author: Chris J. Pickard, Cambridge University      |                
   ============================================================                
 
 Atomic calculation performed for La:
 1s2 2s2 2p6 3s2 3p6 3d10 4s2 4p6 4d10 5s2 5p6 5d1 6s2
 
 Converged in 56 iterations to an ae energy of -230121.495 eV
 
 
 Atomic calculation performed for La:
 1s2 2s2 2p6 3s2 3p6 3d10 4s2 4p6 4d10 5s2 5p6 5d1 6s2
 
 Exceeded max iterations: converged to 0.000000907 eV
 
 Warning: ion_atom_descreen_psp: negative charge density encountered
   ============================================================                
   | Pseudopotential Report - Date of generation  6-03-2018   |                
   ------------------------------------------------------------                
   | Element: La Ionic charge: 11.00 Level of theory: PBE     |                
   | Atomic Solver: ZORA (scalar)                             |                
   |                                                          |                
   |               Reference Electronic Structure             |                
   |         Orbital         Occupation         Energy        |                
   |            5s              2.000           -1.430        |                
   |            5p              6.000           -0.823        |                
   |            6s              2.000           -0.135        |                
   |            5d              1.000           -0.114        |                
   |                                                          |                
   |                 Pseudopotential Definition               |                
   |        Beta     l      e      Rc     scheme   norm       |                
   |          1      0   -1.430   2.298     qc      0         |                
   |          2      0   -0.135   2.298     qc      0         |                
   |          3      0    0.250   2.298     qc      0         |                
   |          4      1   -0.823   2.298     qc      0         |                
   |          5      1    0.250   2.298     qc      0         |                
   |          6      2   -0.114   2.298     qc      0         |                
   |          7      2    0.250   2.298     qc      0         |                
   |         loc     2    0.000   2.298     pn      0         |                
   |                                                          |                
   | Augmentation charge Rinner = 1.606                       |                
   | Partial core correction Rc = 1.606                       |                
   ------------------------------------------------------------                
   | "2|2.3|5|6|7|50U:60:51:52(qc=4.5)"                       |                
   ------------------------------------------------------------                
   |      Author: Chris J. Pickard, Cambridge University      |                
   ============================================================                
 
 Pseudo atomic calculation performed for O 2s2 2p4
 
 Converged in 39 iterations to a total energy of -432.6554 eV
 
 
 Pseudo atomic calculation performed for Zr 4s2 4p6 4d2 5s2
 
 Converged in 38 iterations to a total energy of -1285.4931 eV
 
 
 Pseudo atomic calculation performed for Sn 4d10 5s2 5p2
 
 Converged in 48 iterations to a total energy of -2044.5414 eV
 
 
 Pseudo atomic calculation performed for La 5s2 5p6 5d1 6s2
 
 Converged in 34 iterations to a total energy of -968.0372 eV
 
 Calculation parallelised over 56 processes.
 Data is distributed by G-vector(4-way) and k-point(14-way)

 ************************************ Title ************************************
 nmr testing

 ***************************** General Parameters ******************************
  
 output verbosity                               : normal  (1)
 write checkpoint data to                       : 20.check
 type of calculation                            : Magnetic Resonance
 stress calculation                             : on
 density difference calculation                 : off
 electron localisation func (ELF) calculation   : off
 Hirshfeld analysis                             : off
 unlimited duration calculation
 timing information                             : on
 memory usage estimate                          : on
 write final potential to formatted file        : off
 write final density to formatted file          : off
 write structure in CIF formatted file          : on
 write structure in CELL formatted file         : on
 write BibTeX reference list                    : on
 write OTFG pseudopotential files               : on
 checkpoint writing                             : both castep_bin and check files
  
 output         length unit                     : A
 output           mass unit                     : amu
 output           time unit                     : ps
 output         charge unit                     : e
 output           spin unit                     : hbar/2
 output         energy unit                     : eV
 output          force unit                     : eV/A
 output       velocity unit                     : A/ps
 output       pressure unit                     : GPa
 output     inv_length unit                     : 1/A
 output      frequency unit                     : cm-1
 output force constant unit                     : eV/A**2
 output         volume unit                     : A**3
 output   IR intensity unit                     : (D/A)**2/amu
 output         dipole unit                     : D
 output         efield unit                     : eV/A/e
 output        entropy unit                     : J/mol/K
  
 wavefunctions paging                           : none
 random number generator seed                   : randomised (204838416)
 data distribution                              : optimal for this architecture
 optimization strategy                          : maximize speed(+++)

 *********************** Exchange-Correlation Parameters ***********************
  
 using functional                               : Perdew Burke Ernzerhof
 relativistic treatment                         : ZORA
 DFT+D: Semi-empirical dispersion correction    : off

 ************************* Pseudopotential Parameters **************************
  
 pseudopotential representation                 : reciprocal space
 <beta|phi> representation                      : reciprocal space
 spin-orbit coupling                            : off

 **************************** Basis Set Parameters *****************************
  
 plane wave basis set cut-off                   :   816.3416   eV
 size of standard grid                          :     1.7500
 size of   fine   gmax                          :    25.6161   1/A
 finite basis set correction                    : automatic
 number of sample energies                      :          3
           sample  spacing                      :     5.0000   eV

 **************************** Electronic Parameters ****************************
  
 number of  electrons                           :  728.0    
 net charge of system                           :  0.000    
 treating system as non-spin-polarized
 number of bands                                :        437

 ********************* Electronic Minimization Parameters **********************
  
 Method: Treating system as metallic with density mixing treatment of electrons,
         and number of  SD  steps               :          1
         and number of  CG  steps               :          4
  
 total energy / atom convergence tol.           : 0.1000E-08   eV
 eigen-energy convergence tolerance             : 0.2418E-09   eV
 max force / atom convergence tol.              : ignored
 convergence tolerance window                   :          3   cycles
 max. number of SCF cycles                      :         50
 number of fixed-spin iterations                :         10
 smearing scheme                                : Gaussian
 smearing width                                 : 0.2000       eV
 Fermi energy convergence tolerance             : 0.2721E-13   eV
 periodic dipole correction                     : NONE

 ************************** Density Mixing Parameters **************************
  
 density-mixing scheme                          : Broyden
 max. length of mixing history                  :         20
 charge density mixing amplitude                : 0.8000    
 cut-off energy for mixing                      :  816.3       eV

 *********************** Population Analysis Parameters ************************
  
 Population analysis with cutoff                :  3.000       A

 ************************ Magnetic Resonance Parameters ************************
  
 Magnetic Resonance Property                    : Chemical Shielding + EFG
 Position Operator Method                       : crystal
 max. number of MagRes CG steps                 :        250
 convergence tolerance window                   :          2   cycles
 energy convergence tolerance                   : 0.1000E-11   eV
 band convergence tolerance                     : 0.1000E-08   eV

 *******************************************************************************
  
 
                           -------------------------------
                                      Unit Cell
                           -------------------------------
        Real Lattice(A)                      Reciprocal Lattice(1/A)
  10.8896181   0.0130727   0.0130726        0.5769902  -0.0006918  -0.0006918
   0.0130727  10.8896181   0.0130726       -0.0006918   0.5769902  -0.0006918
   0.0130726   0.0130726  10.8896182       -0.0006918  -0.0006918   0.5769902
 
                       Lattice parameters(A)       Cell Angles
                    a =   10.889634          alpha =   89.862354
                    b =   10.889634          beta  =   89.862354
                    c =   10.889634          gamma =   89.862354
 
                       Current cell volume = 1291.326549       A**3
 
                           -------------------------------
                                     Cell Contents
                           -------------------------------
                         Total number of ions in cell =   88
                      Total number of species in cell =    4
                        Max number of any one species =   56
 
            xxxxxxxxxxxxxxxxxxxxxxxxxxxxxxxxxxxxxxxxxxxxxxxxxxxxxxxxxxxx
            x  Element    Atom        Fractional coordinates of atoms  x
            x            Number           u          v          w      x
            x----------------------------------------------------------x
            x  O            1         0.124961   0.124961   0.124961   x 
            x  O            2         0.624961   0.124961   0.624961   x 
            x  O            3         0.124961   0.624961   0.624961   x 
            x  O            4         0.624961   0.624961   0.124961   x 
            x  O            5         0.875039   0.375039   0.375039   x 
            x  O            6         0.875039   0.875039   0.875039   x 
            x  O            7         0.375039   0.375039   0.875039   x 
            x  O            8         0.375039   0.875039   0.375039   x 
            x  O            9         0.420270   0.125580   0.125580   x 
            x  O           10         0.330179   0.124300   0.624300   x 
            x  O           11         0.830179   0.624300   0.624300   x 
            x  O           12         0.920270   0.625580   0.125580   x 
            x  O           13         0.125580   0.420270   0.125580   x 
            x  O           14         0.624300   0.330179   0.124300   x 
            x  O           15         0.624300   0.830179   0.624300   x 
            x  O           16         0.125580   0.920270   0.625580   x 
            x  O           17         0.125580   0.125580   0.420270   x 
            x  O           18         0.124300   0.624300   0.330179   x 
            x  O           19         0.624300   0.624300   0.830179   x 
            x  O           20         0.625580   0.125580   0.920270   x 
            x  O           21         0.875700   0.669821   0.375700   x 
            x  O           22         0.874420   0.579730   0.874420   x 
            x  O           23         0.374420   0.079730   0.874420   x 
            x  O           24         0.375700   0.169821   0.375700   x 
            x  O           25         0.169821   0.375700   0.375700   x 
            x  O           26         0.079730   0.874420   0.374420   x 
            x  O           27         0.579730   0.874420   0.874420   x 
            x  O           28         0.669821   0.375700   0.875700   x 
            x  O           29         0.874420   0.374420   0.079730   x 
            x  O           30         0.375700   0.375700   0.169821   x 
            x  O           31         0.375700   0.875700   0.669821   x 
            x  O           32         0.874420   0.874420   0.579730   x 
            x  O           33         0.669821   0.875700   0.375700   x 
            x  O           34         0.079730   0.374420   0.874420   x 
            x  O           35         0.375700   0.669821   0.875700   x 
            x  O           36         0.874420   0.079730   0.374420   x 
            x  O           37         0.875700   0.375700   0.669821   x 
            x  O           38         0.374420   0.874420   0.079730   x 
            x  O           39         0.124300   0.330179   0.624300   x 
            x  O           40         0.625580   0.920270   0.125580   x 
            x  O           41         0.920270   0.125580   0.625580   x 
            x  O           42         0.330179   0.624300   0.124300   x 
            x  O           43         0.125580   0.625580   0.920270   x 
            x  O           44         0.624300   0.124300   0.330179   x 
            x  O           45         0.420270   0.625580   0.625580   x 
            x  O           46         0.830179   0.124300   0.124300   x 
            x  O           47         0.124300   0.124300   0.830179   x 
            x  O           48         0.625580   0.625580   0.420270   x 
            x  O           49         0.875700   0.169821   0.875700   x 
            x  O           50         0.374420   0.579730   0.374420   x 
            x  O           51         0.169821   0.875700   0.875700   x 
            x  O           52         0.579730   0.374420   0.374420   x 
            x  O           53         0.875700   0.875700   0.169821   x 
            x  O           54         0.374420   0.374420   0.579730   x 
            x  O           55         0.124300   0.830179   0.124300   x 
            x  O           56         0.625580   0.420270   0.625580   x 
            x  Zr           1         0.500000   0.500000   0.500000   x 
            x  Zr           2         0.500000  -0.000000  -0.000000   x 
            x  Zr           3         0.000000   0.500000   0.000000   x 
            x  Zr           4         0.000000   0.000000   0.500000   x 
            x  Sn           1         0.250000   0.750000   0.000000   x 
            x  Sn           2         0.750000  -0.000000   0.250000   x 
            x  Sn           3        -0.000000   0.250000   0.750000   x 
            x  Sn           4         0.750000   0.250000  -0.000000   x 
            x  Sn           5         0.250000  -0.000000   0.750000   x 
            x  Sn           6         0.000000   0.750000   0.250000   x 
            x  Sn           7         0.250000   0.250000   0.500000   x 
            x  Sn           8         0.750000   0.500000   0.750000   x 
            x  Sn           9         0.750000   0.750000   0.500000   x 
            x  Sn          10         0.250000   0.500000   0.250000   x 
            x  Sn          11         0.500000   0.250000   0.250000   x 
            x  Sn          12         0.500000   0.750000   0.750000   x 
            x  La           1        -0.000000  -0.000000  -0.000000   x 
            x  La           2         0.750000   0.250000   0.500000   x 
            x  La           3         0.250000   0.500000   0.750000   x 
            x  La           4         0.500000   0.750000   0.250000   x 
            x  La           5         0.250000   0.750000   0.500000   x 
            x  La           6         0.750000   0.500000   0.250000   x 
            x  La           7         0.500000   0.250000   0.750000   x 
            x  La           8        -0.000000   0.500000   0.500000   x 
            x  La           9         0.750000   0.750000   0.000000   x 
            x  La          10         0.250000  -0.000000   0.250000   x 
            x  La          11         0.250000   0.250000  -0.000000   x 
            x  La          12         0.750000  -0.000000   0.750000   x 
            x  La          13         0.500000  -0.000000   0.500000   x 
            x  La          14         0.000000   0.750000   0.750000   x 
            x  La          15        -0.000000   0.250000   0.250000   x 
            x  La          16         0.500000   0.500000   0.000000   x 
            xxxxxxxxxxxxxxxxxxxxxxxxxxxxxxxxxxxxxxxxxxxxxxxxxxxxxxxxxxxx
 
 
                         No user defined ionic velocities
 
                           -------------------------------
                                   Details of Species
                           -------------------------------
 
                               Mass of species in AMU
                                    O   15.9994000
                                    Zr   91.2240000
                                    Sn  118.7100000
                                    La  138.9055000
 
                          Electric Quadrupole Moment (Barn)
                                    O   -0.0255800 Isotope 17
                                    Zr   -0.1760000 Isotope 91
                                    Sn    1.0000000 No Isotope Defined
                                    La    0.2000000 Isotope139
 
                          Files used for pseudopotentials:
                                    O 2|1.1|15|18|20|20:21(qc=7)
                                    Zr 3|2.1|7|8|9|40U:50:41:42
                                    Sn 3|2.2|7|8|9|50:51:42
                                    La 2|2.3|5|6|7|50U:60:51:52(qc=4.5)
 
                           -------------------------------
                              k-Points For BZ Sampling
                           -------------------------------
                       MP grid size for SCF calculation is  3  3  3
                            with an offset of   0.000  0.000  0.000
                       Number of kpoints used =            14
 
                           -------------------------------
                               Symmetry and Constraints
                           -------------------------------
 
                      Cell is a supercell containing 4 primitive cells
                      Maximum deviation from symmetry =  0.00000         ANG
 
         There are no symmetry operations specified or generated for this cell
                      Number of ionic constraints     =           3
                      Point group of crystal =     1: C1, 1, 1
                      Space group of crystal =   166: R-3m, -R 3 2"
 
 
                         Centre of mass is constrained
             Set iprint > 1 for details of linear ionic constraints
 
                         Number of cell constraints= 0
                         Cell constraints are:  1 2 3 4 5 6
 
                         External pressure/stress (GPa)
                          0.00000   0.00000   0.00000
                                    0.00000   0.00000
                                              0.00000
  
+---------------- MEMORY AND SCRATCH DISK ESTIMATES PER PROCESS --------------+
|                                                     Memory          Disk    |
| Baseline code, static data and system overhead      322.0 MB         0.0 MB |
| BLAS internal memory storage                          0.0 MB         0.0 MB |
| Model and support data                             1318.3 MB         0.0 MB |
| Electronic energy minimisation requirements         384.8 MB         0.0 MB |
| Force calculation requirements                       24.1 MB         0.0 MB |
| Stress calculation requirements                      28.3 MB         0.0 MB |
|                                               ----------------------------- |
| Approx. total storage required per process         2025.1 MB         0.0 MB |
|                                                                             |
| Requirements will fluctuate during execution and may exceed these estimates |
+-----------------------------------------------------------------------------+
Calculating finite basis set correction with  3 cut-off energies.
Calculating total energy with cut-off of  806.342eV.
------------------------------------------------------------------------ <-- SCF
SCF loop      Energy           Fermi           Energy gain       Timer   <-- SCF
                               energy          per atom          (sec)   <-- SCF
------------------------------------------------------------------------ <-- SCF
Initial  -6.00365541E+004  0.00000000E+000                        74.97  <-- SCF
      1  -6.75406340E+004  7.32147030E+000   8.52736352E+001     214.91  <-- SCF
      2  -7.00826830E+004  6.08631735E+000   2.88869204E+001     308.85  <-- SCF
      3  -7.01672642E+004  5.93484903E+000   9.61150630E-001     414.67  <-- SCF
      4  -7.01569089E+004  7.37506185E+000  -1.17673965E-001     542.71  <-- SCF
      5  -7.00632788E+004  6.48982548E+000  -1.06397808E+000     669.86  <-- SCF
      6  -7.00643594E+004  6.41441643E+000   1.22796590E-002     840.05  <-- SCF
      7  -7.00639524E+004  6.48043762E+000  -4.62516579E-003     983.94  <-- SCF
      8  -7.00640598E+004  6.48898990E+000   1.21976306E-003    1161.38  <-- SCF
      9  -7.00640875E+004  6.49750174E+000   3.15166726E-004    1307.08  <-- SCF
     10  -7.00640836E+004  6.49711118E+000  -4.47203146E-005    1447.25  <-- SCF
     11  -7.00640849E+004  6.49947678E+000   1.52808654E-005    1591.73  <-- SCF
     12  -7.00640853E+004  6.50087852E+000   4.43818943E-006    1734.05  <-- SCF
     13  -7.00640853E+004  6.50133306E+000   3.70912489E-007    1881.09  <-- SCF
     14  -7.00640853E+004  6.50134441E+000   1.42450753E-008    2011.41  <-- SCF
     15  -7.00640853E+004  6.50136907E+000  -5.36594875E-010    2129.89  <-- SCF
     16  -7.00640853E+004  6.50139448E+000   1.59881649E-009    2225.56  <-- SCF
     17  -7.00640853E+004  6.50139365E+000   1.11649982E-010    2315.22  <-- SCF
     18  -7.00640853E+004  6.50139353E+000   4.55599422E-011    2404.34  <-- SCF
------------------------------------------------------------------------ <-- SCF
 
Final energy, E             =  -70064.08533541     eV
Final free energy (E-TS)    =  -70064.08533541     eV
(energies not corrected for finite basis set)
 
NB est. 0K energy (E-0.5TS)      =  -70064.08533541     eV
 
Calculating total energy with cut-off of  811.342eV.
------------------------------------------------------------------------ <-- SCF
SCF loop      Energy           Fermi           Energy gain       Timer   <-- SCF
                               energy          per atom          (sec)   <-- SCF
------------------------------------------------------------------------ <-- SCF
Initial  -7.00640853E+004  0.00000000E+000                      2440.11  <-- SCF
      1  -7.00640879E+004  6.50139043E+000   2.95846589E-005    2552.21  <-- SCF
      2  -7.00640879E+004  6.50139043E+000   1.91661115E-010    2640.77  <-- SCF
      3  -7.00640879E+004  6.50138649E+000   1.75716541E-008    2728.34  <-- SCF
      4  -7.00640879E+004  6.50139218E+000   5.86935799E-010    2815.86  <-- SCF
      5  -7.00640879E+004  6.50138957E+000  -1.16712198E-011    2904.03  <-- SCF
------------------------------------------------------------------------ <-- SCF
 
Final energy, E             =  -70064.08794047     eV
Final free energy (E-TS)    =  -70064.08794047     eV
(energies not corrected for finite basis set)
 
NB est. 0K energy (E-0.5TS)      =  -70064.08794047     eV
 
Calculating total energy with cut-off of  816.342eV.
------------------------------------------------------------------------ <-- SCF
SCF loop      Energy           Fermi           Energy gain       Timer   <-- SCF
                               energy          per atom          (sec)   <-- SCF
------------------------------------------------------------------------ <-- SCF
Initial  -7.00640879E+004  0.00000000E+000                      2939.96  <-- SCF
      1  -7.00640908E+004  6.50138841E+000   3.27278003E-005    3051.81  <-- SCF
      2  -7.00640908E+004  6.50138841E+000   1.92645435E-010    3140.47  <-- SCF
      3  -7.00640908E+004  6.50138115E+000   1.90702106E-008    3230.02  <-- SCF
      4  -7.00640908E+004  6.50138893E+000   6.27152291E-010    3317.92  <-- SCF
      5  -7.00640908E+004  6.50138594E+000  -8.11360699E-011    3405.57  <-- SCF
------------------------------------------------------------------------ <-- SCF
 
Final energy, E             =  -70064.09082226     eV
Final free energy (E-TS)    =  -70064.09082226     eV
(energies not corrected for finite basis set)
 
NB est. 0K energy (E-0.5TS)      =  -70064.09082226     eV
 
 For future reference: finite basis dEtot/dlog(Ecut) =      -0.444001eV
 Total energy corrected for finite basis set =  -70064.090813 eV
 
  =====================================================================
  +       Calculation of Nuclear Magnetic Resonance Parameters        +
  + ================================================================= +
 
  Starting Calculation of Electric Field Gradient Tensors         |<-- EFG
  +---------------- MEMORY AND SCRATCH DISK ESTIMATES PER PROCESS --------------+
  |                                                     Memory          Disk    |
  | Model and support data                             1316.1 MB         0.0 MB |
  | NMR EFG calculation requirements                    370.5 MB         0.0 MB |
  |                                               ----------------------------- |
  | Approx. total storage required per process         1686.6 MB         0.0 MB |
  |                                                                             |
  | Requirements will fluctuate during execution and may exceed these estimates |
  +-----------------------------------------------------------------------------+
  Total Time for EFG Tensors                     440.79 sec       |<-- EFG
 
  Starting Calculation of Chemical Shielding Tensors              |<-- NMR
  +---------------- MEMORY AND SCRATCH DISK ESTIMATES PER PROCESS --------------+
  |                                                     Memory          Disk    |
  | Model and support data                             1316.1 MB         0.0 MB |
  | NMR chemical shift calculation requirements         568.9 MB         0.0 MB |
  |                                               ----------------------------- |
  | Approx. total storage required per process         1885.0 MB         0.0 MB |
  |                                                                             |
  | Requirements will fluctuate during execution and may exceed these estimates |
  +-----------------------------------------------------------------------------+
  Starting k-point:   1 of   1                                    |<-- NMR
  Total Time for step 1 of 6:                   3367.29 sec       |<-- NMR
  Total Time for step 2 of 6:                   3348.83 sec       |<-- NMR
  Total Time for step 3 of 6:                   3362.79 sec       |<-- NMR
  Total Time for step 4 of 6:                   3344.32 sec       |<-- NMR
  Total Time for step 5 of 6:                   3361.63 sec       |<-- NMR
  Total Time for step 6 of 6:                   3332.18 sec       |<-- NMR
  Total Time for Chemical Shielding Tensors    29592.99 sec       |<-- NMR
 
  ========================================================================
  |           Chemical Shielding and Electric Field Gradient Tensors     |
  |----------------------------------------------------------------------|
  |     Nucleus                Shielding tensor             EFG Tensor   |
  |  Species       Ion    Iso(ppm)   Aniso(ppm)  Asym    Cq(MHz)    Eta  |
  |    O           1     -319.85     -22.60      0.00   3.287E-02   0.00 |
  |    O           2     -319.85     -22.60      0.00   3.287E-02   0.00 |
  |    O           3     -319.85     -22.60      0.00   3.287E-02   0.00 |
  |    O           4     -319.85     -22.60      0.00   3.287E-02   0.00 |
  |    O           5     -319.85     -22.60      0.00   3.287E-02   0.00 |
  |    O           6     -319.85     -22.60      0.00   3.287E-02   0.00 |
  |    O           7     -319.85     -22.60      0.00   3.287E-02   0.00 |
  |    O           8     -319.85     -22.60      0.00   3.287E-02   0.00 |
  |    O           9      -88.72      88.37      0.11  -3.166E+00   0.03 |
  |    O          10       -8.05      56.02      0.82   3.882E+00   0.91 |
  |    O          11       -8.05      56.02      0.82   3.882E+00   0.91 |
  |    O          12      -88.72      88.37      0.11  -3.166E+00   0.03 |
  |    O          13      -88.73      88.38      0.11  -3.166E+00   0.03 |
  |    O          14       -8.05      56.03      0.82   3.882E+00   0.91 |
  |    O          15       -8.05      56.03      0.82   3.882E+00   0.91 |
  |    O          16      -88.73      88.38      0.11  -3.166E+00   0.03 |
  |    O          17      -88.73      88.38      0.11  -3.166E+00   0.03 |
  |    O          18       -8.05      56.02      0.82   3.882E+00   0.91 |
  |    O          19       -8.05      56.02      0.82   3.882E+00   0.91 |
  |    O          20      -88.72      88.38      0.11  -3.166E+00   0.03 |
  |    O          21       -8.05      56.02      0.82   3.882E+00   0.91 |
  |    O          22      -88.73      88.39      0.11  -3.166E+00   0.03 |
  |    O          23      -88.72      88.38      0.11  -3.166E+00   0.03 |
  |    O          24       -8.05      56.02      0.82   3.882E+00   0.91 |
  |    O          25       -8.05      56.02      0.82   3.882E+00   0.91 |
  |    O          26      -88.73      88.38      0.11  -3.166E+00   0.03 |
  |    O          27      -88.72      88.38      0.11  -3.166E+00   0.03 |
  |    O          28       -8.05      56.02      0.82   3.882E+00   0.91 |
  |    O          29      -88.73      88.38      0.11  -3.166E+00   0.03 |
  |    O          30       -8.05      56.02      0.82   3.882E+00   0.91 |
  |    O          31       -8.05      56.02      0.82   3.882E+00   0.91 |
  |    O          32      -88.73      88.38      0.11  -3.166E+00   0.03 |
  |    O          33       -8.05      56.02      0.82   3.882E+00   0.91 |
  |    O          34      -88.72      88.37      0.11  -3.166E+00   0.03 |
  |    O          35       -8.05      56.02      0.82   3.882E+00   0.91 |
  |    O          36      -88.73      88.38      0.11  -3.166E+00   0.03 |
  |    O          37       -8.05      56.02      0.82   3.882E+00   0.91 |
  |    O          38      -88.72      88.38      0.11  -3.166E+00   0.03 |
  |    O          39       -8.05      56.03      0.82   3.882E+00   0.91 |
  |    O          40      -88.72      88.38      0.11  -3.166E+00   0.03 |
  |    O          41      -88.72      88.37      0.11  -3.166E+00   0.03 |
  |    O          42       -8.05      56.02      0.82   3.882E+00   0.91 |
  |    O          43      -88.72      88.38      0.11  -3.166E+00   0.03 |
  |    O          44       -8.05      56.02      0.82   3.882E+00   0.91 |
  |    O          45      -88.72      88.37      0.11  -3.166E+00   0.03 |
  |    O          46       -8.05      56.02      0.82   3.882E+00   0.91 |
  |    O          47       -8.05      56.02      0.82   3.882E+00   0.91 |
  |    O          48      -88.72      88.38      0.11  -3.166E+00   0.03 |
  |    O          49       -8.05      56.02      0.82   3.882E+00   0.91 |
  |    O          50      -88.72      88.39      0.11  -3.166E+00   0.03 |
  |    O          51       -8.05      56.02      0.82   3.882E+00   0.91 |
  |    O          52      -88.72      88.38      0.11  -3.166E+00   0.03 |
  |    O          53       -8.05      56.02      0.82   3.882E+00   0.91 |
  |    O          54      -88.72      88.38      0.11  -3.166E+00   0.03 |
  |    O          55       -8.05      56.03      0.82   3.882E+00   0.91 |
  |    O          56      -88.73      88.38      0.11  -3.166E+00   0.03 |
  |    Zr          1     1600.45    -104.24      0.00  -3.374E+01   0.00 |
  |    Zr          2     1600.45    -104.25      0.00  -3.374E+01   0.00 |
  |    Zr          3     1600.45    -104.25      0.00  -3.374E+01   0.00 |
  |    Zr          4     1600.45    -104.25      0.00  -3.374E+01   0.00 |
  |    Sn          1     3253.14     -64.34      0.75   1.205E+02   0.04 |
  |    Sn          2     3253.14     -64.35      0.75   1.205E+02   0.04 |
  |    Sn          3     3253.13     -64.37      0.75   1.205E+02   0.04 |
  |    Sn          4     3253.14     -64.34      0.75   1.205E+02   0.04 |
  |    Sn          5     3253.14     -64.35      0.75   1.205E+02   0.04 |
  |    Sn          6     3253.13     -64.38      0.75   1.205E+02   0.04 |
  |    Sn          7     3253.13     -64.33      0.75   1.205E+02   0.04 |
  |    Sn          8     3253.13     -64.35      0.75   1.205E+02   0.04 |
  |    Sn          9     3253.14     -64.34      0.75   1.205E+02   0.04 |
  |    Sn         10     3253.13     -64.35      0.75   1.205E+02   0.04 |
  |    Sn         11     3253.13     -64.37      0.75   1.205E+02   0.04 |
  |    Sn         12     3253.13     -64.37      0.75   1.205E+02   0.04 |
  |    La          1     4482.79     242.01      0.00  -6.895E+01   0.00 |
  |    La          2     4607.76     539.10      0.05  -8.175E+01   0.15 |
  |    La          3     4607.77     539.10      0.05  -8.175E+01   0.15 |
  |    La          4     4607.76     539.10      0.05  -8.175E+01   0.15 |
  |    La          5     4607.76     539.10      0.05  -8.175E+01   0.15 |
  |    La          6     4607.77     539.10      0.05  -8.175E+01   0.15 |
  |    La          7     4607.77     539.09      0.05  -8.175E+01   0.15 |
  |    La          8     4482.79     242.01      0.00  -6.895E+01   0.00 |
  |    La          9     4607.77     539.10      0.05  -8.175E+01   0.15 |
  |    La         10     4607.77     539.10      0.05  -8.175E+01   0.15 |
  |    La         11     4607.76     539.11      0.05  -8.175E+01   0.15 |
  |    La         12     4607.77     539.11      0.05  -8.175E+01   0.15 |
  |    La         13     4482.79     242.01      0.00  -6.895E+01   0.00 |
  |    La         14     4607.76     539.09      0.05  -8.175E+01   0.15 |
  |    La         15     4607.76     539.09      0.05  -8.175E+01   0.15 |
  |    La         16     4482.78     242.01      0.00  -6.895E+01   0.00 |
  ========================================================================
 
 *********************** Forces ***********************
 *                                                    *
 *            Cartesian components (eV/A)             *
 * -------------------------------------------------- *
 *                   x            y            z      *
 *                                                    *
 * O         1      0.00185      0.00185      0.00185 *
 * O         2      0.00185      0.00185      0.00185 *
 * O         3      0.00185      0.00185      0.00185 *
 * O         4      0.00185      0.00185      0.00185 *
 * O         5     -0.00185     -0.00185     -0.00185 *
 * O         6     -0.00185     -0.00185     -0.00185 *
 * O         7     -0.00185     -0.00185     -0.00185 *
 * O         8     -0.00185     -0.00185     -0.00185 *
 * O         9     -0.00113      0.03250      0.03250 *
 * O        10     -0.00986     -0.00071     -0.00071 *
 * O        11     -0.00986     -0.00071     -0.00070 *
 * O        12     -0.00113      0.03250      0.03250 *
 * O        13      0.03250     -0.00113      0.03250 *
 * O        14     -0.00071     -0.00986     -0.00070 *
 * O        15     -0.00071     -0.00986     -0.00071 *
 * O        16      0.03250     -0.00113      0.03250 *
 * O        17      0.03250      0.03250     -0.00113 *
 * O        18     -0.00070     -0.00070     -0.00986 *
 * O        19     -0.00070     -0.00070     -0.00986 *
 * O        20      0.03250      0.03250     -0.00113 *
 * O        21      0.00071      0.00986      0.00071 *
 * O        22     -0.03250      0.00113     -0.03250 *
 * O        23     -0.03250      0.00113     -0.03250 *
 * O        24      0.00070      0.00986      0.00071 *
 * O        25      0.00986      0.00071      0.00071 *
 * O        26      0.00113     -0.03250     -0.03250 *
 * O        27      0.00113     -0.03250     -0.03250 *
 * O        28      0.00987      0.00071      0.00071 *
 * O        29     -0.03250     -0.03250      0.00113 *
 * O        30      0.00071      0.00071      0.00986 *
 * O        31      0.00070      0.00071      0.00986 *
 * O        32     -0.03250     -0.03250      0.00113 *
 * O        33      0.00986      0.00070      0.00071 *
 * O        34      0.00113     -0.03250     -0.03250 *
 * O        35      0.00071      0.00987      0.00071 *
 * O        36     -0.03250      0.00113     -0.03250 *
 * O        37      0.00071      0.00070      0.00986 *
 * O        38     -0.03250     -0.03250      0.00113 *
 * O        39     -0.00070     -0.00986     -0.00071 *
 * O        40      0.03250     -0.00113      0.03250 *
 * O        41     -0.00113      0.03250      0.03250 *
 * O        42     -0.00986     -0.00071     -0.00070 *
 * O        43      0.03250      0.03250     -0.00113 *
 * O        44     -0.00071     -0.00071     -0.00986 *
 * O        45     -0.00113      0.03250      0.03250 *
 * O        46     -0.00986     -0.00071     -0.00071 *
 * O        47     -0.00071     -0.00071     -0.00986 *
 * O        48      0.03250      0.03250     -0.00113 *
 * O        49      0.00071      0.00986      0.00070 *
 * O        50     -0.03250      0.00113     -0.03250 *
 * O        51      0.00986      0.00071      0.00070 *
 * O        52      0.00113     -0.03250     -0.03250 *
 * O        53      0.00071      0.00070      0.00986 *
 * O        54     -0.03250     -0.03250      0.00113 *
 * O        55     -0.00071     -0.00986     -0.00071 *
 * O        56      0.03250     -0.00113      0.03250 *
 * Zr        1      0.00001     -0.00000      0.00000 *
 * Zr        2      0.00000      0.00001      0.00000 *
 * Zr        3     -0.00000     -0.00000     -0.00000 *
 * Zr        4     -0.00000      0.00000      0.00000 *
 * Sn        1      0.00000     -0.00000     -0.00000 *
 * Sn        2     -0.00000      0.00000      0.00000 *
 * Sn        3      0.00000      0.00000     -0.00000 *
 * Sn        4      0.00000      0.00000      0.00000 *
 * Sn        5      0.00000      0.00000     -0.00000 *
 * Sn        6     -0.00000     -0.00000      0.00000 *
 * Sn        7     -0.00000     -0.00000     -0.00000 *
 * Sn        8     -0.00000      0.00000     -0.00000 *
 * Sn        9     -0.00000     -0.00000     -0.00000 *
 * Sn       10      0.00000     -0.00000      0.00000 *
 * Sn       11     -0.00000      0.00000      0.00000 *
 * Sn       12      0.00000     -0.00000     -0.00000 *
 * La        1     -0.00001      0.00000      0.00001 *
 * La        2     -0.00000      0.00000     -0.00000 *
 * La        3     -0.00000     -0.00000     -0.00000 *
 * La        4      0.00000     -0.00000      0.00000 *
 * La        5     -0.00000     -0.00000     -0.00001 *
 * La        6      0.00000     -0.00000      0.00000 *
 * La        7      0.00001      0.00000     -0.00000 *
 * La        8     -0.00000     -0.00000     -0.00001 *
 * La        9      0.00000     -0.00000      0.00001 *
 * La       10      0.00000      0.00000      0.00000 *
 * La       11     -0.00000      0.00000      0.00001 *
 * La       12     -0.00000      0.00000     -0.00000 *
 * La       13      0.00001      0.00001     -0.00000 *
 * La       14     -0.00001     -0.00000     -0.00000 *
 * La       15     -0.00001      0.00000      0.00000 *
 * La       16      0.00000     -0.00000      0.00000 *
 *                                                    *
 ******************************************************
 
 ***************** Stress Tensor *****************
 *                                               *
 *          Cartesian components (GPa)           *
 * --------------------------------------------- *
 *             x             y             z     *
 *                                               *
 *  x      0.000474      0.001435      0.001434  *
 *  y      0.001435      0.000474      0.001434  *
 *  z      0.001434      0.001434      0.000475  *
 *                                               *
 *  Pressure:   -0.0005                          *
 *                                               *
 *************************************************
 
 Pseudo atomic calculation performed for O 2s2 2p4
 
 Converged in 39 iterations to a total energy of -432.6554 eV
 
 
 Pseudo atomic calculation performed for Zr 4s2 4p6 4d2 5s2
 
 Converged in 38 iterations to a total energy of -1285.4931 eV
 
 
 Pseudo atomic calculation performed for Sn 4d10 5s2 5p2
 
 Converged in 48 iterations to a total energy of -2044.5414 eV
 
 
 Pseudo atomic calculation performed for La 5s2 5p6 5d1 6s2
 
 Converged in 34 iterations to a total energy of -968.0372 eV
 
Charge spilling parameter for spin component 1 = 0.26%
 
     Atomic Populations (Mulliken)
     -----------------------------
Species   Ion     s      p      d      f     Total  Charge (e)
==============================================================
  O        1     1.87   5.00   0.00   0.00   6.87    -0.87
  O        2     1.87   5.00   0.00   0.00   6.87    -0.87
  O        3     1.87   5.00   0.00   0.00   6.87    -0.87
  O        4     1.87   5.00   0.00   0.00   6.87    -0.87
  O        5     1.87   5.00   0.00   0.00   6.87    -0.87
  O        6     1.87   5.00   0.00   0.00   6.87    -0.87
  O        7     1.87   5.00   0.00   0.00   6.87    -0.87
  O        8     1.87   5.00   0.00   0.00   6.87    -0.87
  O        9     1.87   4.99   0.00   0.00   6.86    -0.86
  O       10     1.88   5.03   0.00   0.00   6.91    -0.91
  O       11     1.88   5.03   0.00   0.00   6.91    -0.91
  O       12     1.87   4.99   0.00   0.00   6.86    -0.86
  O       13     1.87   4.99   0.00   0.00   6.86    -0.86
  O       14     1.88   5.03   0.00   0.00   6.91    -0.91
  O       15     1.88   5.03   0.00   0.00   6.91    -0.91
  O       16     1.87   4.99   0.00   0.00   6.86    -0.86
  O       17     1.87   4.99   0.00   0.00   6.86    -0.86
  O       18     1.88   5.03   0.00   0.00   6.91    -0.91
  O       19     1.88   5.03   0.00   0.00   6.91    -0.91
  O       20     1.87   4.99   0.00   0.00   6.86    -0.86
  O       21     1.88   5.03   0.00   0.00   6.91    -0.91
  O       22     1.87   4.99   0.00   0.00   6.86    -0.86
  O       23     1.87   4.99   0.00   0.00   6.86    -0.86
  O       24     1.88   5.03   0.00   0.00   6.91    -0.91
  O       25     1.88   5.03   0.00   0.00   6.91    -0.91
  O       26     1.87   4.99   0.00   0.00   6.86    -0.86
  O       27     1.87   4.99   0.00   0.00   6.86    -0.86
  O       28     1.88   5.03   0.00   0.00   6.91    -0.91
  O       29     1.87   4.99   0.00   0.00   6.86    -0.86
  O       30     1.88   5.03   0.00   0.00   6.91    -0.91
  O       31     1.88   5.03   0.00   0.00   6.91    -0.91
  O       32     1.87   4.99   0.00   0.00   6.86    -0.86
  O       33     1.88   5.03   0.00   0.00   6.91    -0.91
  O       34     1.87   4.99   0.00   0.00   6.86    -0.86
  O       35     1.88   5.03   0.00   0.00   6.91    -0.91
  O       36     1.87   4.99   0.00   0.00   6.86    -0.86
  O       37     1.88   5.03   0.00   0.00   6.91    -0.91
  O       38     1.87   4.99   0.00   0.00   6.86    -0.86
  O       39     1.88   5.03   0.00   0.00   6.91    -0.91
  O       40     1.87   4.99   0.00   0.00   6.86    -0.86
  O       41     1.87   4.99   0.00   0.00   6.86    -0.86
  O       42     1.88   5.03   0.00   0.00   6.91    -0.91
  O       43     1.87   4.99   0.00   0.00   6.86    -0.86
  O       44     1.88   5.03   0.00   0.00   6.91    -0.91
  O       45     1.87   4.99   0.00   0.00   6.86    -0.86
  O       46     1.88   5.03   0.00   0.00   6.91    -0.91
  O       47     1.88   5.03   0.00   0.00   6.91    -0.91
  O       48     1.87   4.99   0.00   0.00   6.86    -0.86
  O       49     1.88   5.03   0.00   0.00   6.91    -0.91
  O       50     1.87   4.99   0.00   0.00   6.86    -0.86
  O       51     1.88   5.03   0.00   0.00   6.91    -0.91
  O       52     1.87   4.99   0.00   0.00   6.86    -0.86
  O       53     1.88   5.03   0.00   0.00   6.91    -0.91
  O       54     1.87   4.99   0.00   0.00   6.86    -0.86
  O       55     1.88   5.03   0.00   0.00   6.91    -0.91
  O       56     1.87   4.99   0.00   0.00   6.86    -0.86
  Zr       1     2.36   6.50   1.92   0.00  10.77     1.23
  Zr       2     2.36   6.50   1.92   0.00  10.77     1.23
  Zr       3     2.36   6.50   1.92   0.00  10.77     1.23
  Zr       4     2.36   6.50   1.92   0.00  10.77     1.23
  Sn       1     1.04   1.31  10.00   0.00  12.35     1.65
  Sn       2     1.04   1.31  10.00   0.00  12.35     1.65
  Sn       3     1.04   1.31  10.00   0.00  12.35     1.65
  Sn       4     1.04   1.31  10.00   0.00  12.35     1.65
  Sn       5     1.04   1.31  10.00   0.00  12.35     1.65
  Sn       6     1.04   1.31  10.00   0.00  12.35     1.65
  Sn       7     1.04   1.31  10.00   0.00  12.35     1.65
  Sn       8     1.04   1.31  10.00   0.00  12.35     1.65
  Sn       9     1.04   1.31  10.00   0.00  12.35     1.65
  Sn      10     1.04   1.31  10.00   0.00  12.35     1.65
  Sn      11     1.04   1.31  10.00   0.00  12.35     1.65
  Sn      12     1.04   1.31  10.00   0.00  12.35     1.65
  La       1     2.14   6.19   1.19   0.00   9.52     1.48
  La       2     2.05   6.18   1.20   0.00   9.43     1.57
  La       3     2.05   6.18   1.20   0.00   9.43     1.57
  La       4     2.05   6.18   1.20   0.00   9.43     1.57
  La       5     2.05   6.18   1.20   0.00   9.43     1.57
  La       6     2.05   6.18   1.20   0.00   9.43     1.57
  La       7     2.05   6.18   1.20   0.00   9.43     1.57
  La       8     2.14   6.19   1.19   0.00   9.52     1.48
  La       9     2.05   6.18   1.20   0.00   9.43     1.57
  La      10     2.05   6.18   1.20   0.00   9.43     1.57
  La      11     2.05   6.18   1.20   0.00   9.43     1.57
  La      12     2.05   6.18   1.20   0.00   9.43     1.57
  La      13     2.14   6.19   1.19   0.00   9.52     1.48
  La      14     2.05   6.18   1.20   0.00   9.43     1.57
  La      15     2.05   6.18   1.20   0.00   9.43     1.57
  La      16     2.14   6.19   1.19   0.00   9.52     1.48
==============================================================
 
            Bond              Population      Length (A)
============================================================
         O 26 -- Sn 6              0.34        2.10841
         O 41 -- Sn 3              0.34        2.10841
         O 56 -- Sn 8              0.34        2.10841
         O 22 -- Sn 8              0.34        2.10841
         O 34 -- Sn 3              0.34        2.10841
         O 12 -- Sn 6              0.34        2.10841
         O 43 -- Sn 1              0.34        2.10841
         O 50 -- Sn 10             0.34        2.10841
         O 32 -- Sn 9              0.34        2.10841
         O 38 -- Sn 1              0.34        2.10841
         O 17 -- Sn 7              0.34        2.10841
         O 16 -- Sn 5              0.34        2.10841
         O 48 -- Sn 9              0.34        2.10841
         O 29 -- Sn 4              0.34        2.10841
         O 13 -- Sn 10             0.34        2.10841
         O 36 -- Sn 2              0.34        2.10841
         O 54 -- Sn 7              0.34        2.10841
         O 20 -- Sn 4              0.34        2.10841
         O 52 -- Sn 11             0.34        2.10841
         O 23 -- Sn 5              0.34        2.10841
         O 45 -- Sn 12             0.34        2.10841
         O 9  -- Sn 11             0.34        2.10841
         O 40 -- Sn 2              0.34        2.10841
         O 27 -- Sn 12             0.34        2.10841
         O 55 -- Sn 1              0.33        2.11169
         O 21 -- Sn 9              0.33        2.11169
         O 47 -- Sn 5              0.33        2.11169
         O 37 -- Sn 8              0.33        2.11169
         O 35 -- Sn 12             0.33        2.11169
         O 49 -- Sn 4              0.33        2.11169
         O 18 -- Sn 10             0.33        2.11169
         O 28 -- Sn 4              0.33        2.11169
         O 53 -- Sn 2              0.33        2.11169
         O 46 -- Sn 2              0.33        2.11169
         O 39 -- Sn 7              0.33        2.11169
         O 44 -- Sn 11             0.33        2.11169
         O 19 -- Sn 12             0.33        2.11169
         O 11 -- Sn 9              0.33        2.11169
         O 33 -- Sn 2              0.33        2.11169
         O 24 -- Sn 11             0.33        2.11169
         O 51 -- Sn 5              0.33        2.11169
         O 14 -- Sn 11             0.33        2.11169
         O 55 -- Sn 6              0.33        2.11169
         O 30 -- Sn 11             0.33        2.11169
         O 15 -- Sn 12             0.33        2.11169
         O 37 -- Sn 3              0.33        2.11169
         O 18 -- Sn 6              0.33        2.11169
         O 31 -- Sn 12             0.33        2.11169
         O 42 -- Sn 10             0.33        2.11169
         O 31 -- Sn 5              0.33        2.11169
         O 51 -- Sn 1              0.33        2.11169
         O 39 -- Sn 3              0.33        2.11169
         O 25 -- Sn 7              0.33        2.11169
         O 44 -- Sn 2              0.33        2.11169
         O 14 -- Sn 4              0.33        2.11169
         O 25 -- Sn 10             0.33        2.11169
         O 10 -- Sn 7              0.33        2.11169
         O 49 -- Sn 3              0.33        2.11169
         O 10 -- Sn 5              0.33        2.11169
         O 53 -- Sn 6              0.33        2.11169
         O 11 -- Sn 8              0.33        2.11169
         O 42 -- Sn 1              0.33        2.11169
         O 46 -- Sn 4              0.33        2.11169
         O 28 -- Sn 8              0.33        2.11169
         O 24 -- Sn 7              0.33        2.11169
         O 30 -- Sn 10             0.33        2.11169
         O 15 -- Sn 9              0.33        2.11169
         O 21 -- Sn 6              0.33        2.11169
         O 35 -- Sn 1              0.33        2.11169
         O 19 -- Sn 8              0.33        2.11169
         O 47 -- Sn 3              0.33        2.11169
         O 33 -- Sn 9              0.33        2.11169
         O 45 -- Zr 1              0.44        2.11935
         O 27 -- Zr 2              0.44        2.11935
         O 52 -- Zr 1              0.44        2.11935
         O 29 -- Zr 3              0.44        2.11935
         O 36 -- Zr 4              0.44        2.11935
         O 16 -- Zr 4              0.44        2.11935
         O 9  -- Zr 2              0.44        2.11935
         O 13 -- Zr 3              0.44        2.11935
         O 54 -- Zr 1              0.44        2.11935
         O 17 -- Zr 4              0.44        2.11935
         O 50 -- Zr 1              0.44        2.11935
         O 43 -- Zr 3              0.44        2.11935
         O 40 -- Zr 2              0.44        2.11935
         O 23 -- Zr 2              0.44        2.11935
         O 32 -- Zr 4              0.44        2.11935
         O 20 -- Zr 2              0.44        2.11935
         O 48 -- Zr 1              0.44        2.11935
         O 34 -- Zr 3              0.44        2.11935
         O 38 -- Zr 2              0.44        2.11935
         O 41 -- Zr 4              0.44        2.11935
         O 22 -- Zr 3              0.44        2.11935
         O 12 -- Zr 3              0.44        2.11935
         O 26 -- Zr 4              0.44        2.11935
         O 56 -- Zr 1              0.44        2.11935
         O 5  -- La 15             0.18        2.35603
         O 3  -- La 14             0.18        2.35603
         O 7  -- La 11             0.18        2.35603
         O 8  -- La 10             0.18        2.35603
         O 7  -- La 7              0.18        2.35603
         O 4  -- La 9              0.18        2.35603
         O 4  -- La 4              0.18        2.35603
         O 2  -- La 12             0.18        2.35603
         O 5  -- La 2              0.18        2.35603
         O 6  -- La 12             0.18        2.35603
         O 4  -- La 6              0.18        2.35603
         O 7  -- La 3              0.18        2.35603
         O 3  -- La 3              0.18        2.35603
         O 5  -- La 6              0.18        2.35603
         O 8  -- La 4              0.18        2.35603
         O 3  -- La 5              0.18        2.35603
         O 6  -- La 14             0.18        2.35603
         O 2  -- La 7              0.18        2.35603
         O 1  -- La 15             0.18        2.35603
         O 1  -- La 10             0.18        2.35603
         O 8  -- La 5              0.18        2.35603
         O 6  -- La 9              0.18        2.35603
         O 2  -- La 2              0.18        2.35603
         O 1  -- La 11             0.18        2.35603
         O 8  -- La 13             0.15        2.36260
         O 6  -- La 1              0.15        2.36260
         O 7  -- La 16             0.15        2.36260
         O 4  -- La 16             0.15        2.36260
         O 2  -- La 13             0.15        2.36260
         O 3  -- La 8              0.15        2.36260
         O 5  -- La 8              0.15        2.36260
         O 1  -- La 1              0.15        2.36260
         O 11 -- La 8              0.24        2.65876
         O 37 -- La 8              0.24        2.65876
         O 51 -- La 1              0.24        2.65876
         O 55 -- La 1              0.24        2.65876
         O 21 -- La 8              0.24        2.65876
         O 42 -- La 16             0.24        2.65876
         O 28 -- La 16             0.24        2.65876
         O 39 -- La 8              0.24        2.65876
         O 25 -- La 8              0.24        2.65876
         O 18 -- La 8              0.24        2.65876
         O 49 -- La 1              0.24        2.65876
         O 47 -- La 1              0.24        2.65876
         O 53 -- La 1              0.24        2.65876
         O 10 -- La 13             0.24        2.65876
         O 19 -- La 16             0.24        2.65876
         O 33 -- La 13             0.24        2.65876
         O 14 -- La 16             0.24        2.65876
         O 46 -- La 1              0.24        2.65876
         O 24 -- La 13             0.24        2.65876
         O 30 -- La 16             0.24        2.65876
         O 44 -- La 13             0.24        2.65876
         O 35 -- La 16             0.24        2.65876
         O 31 -- La 13             0.24        2.65876
         O 15 -- La 13             0.24        2.65876
         O 27 -- La 9              0.18        2.67114
         O 40 -- La 9              0.18        2.67114
         O 45 -- La 3              0.18        2.67114
         O 45 -- La 5              0.18        2.67114
         O 27 -- La 12             0.18        2.67114
         O 52 -- La 2              0.18        2.67114
         O 9  -- La 11             0.18        2.67114
         O 23 -- La 11             0.18        2.67114
         O 52 -- La 6              0.18        2.67114
         O 20 -- La 12             0.18        2.67114
         O 36 -- La 15             0.18        2.67114
         O 9  -- La 10             0.18        2.67114
         O 36 -- La 2              0.18        2.67114
         O 50 -- La 5              0.18        2.67114
         O 16 -- La 14             0.18        2.67114
         O 54 -- La 3              0.18        2.67114
         O 40 -- La 4              0.18        2.67114
         O 20 -- La 7              0.18        2.67114
         O 38 -- La 10             0.18        2.67114
         O 16 -- La 5              0.18        2.67114
         O 48 -- La 6              0.18        2.67114
         O 23 -- La 7              0.18        2.67114
         O 29 -- La 15             0.18        2.67114
         O 32 -- La 14             0.18        2.67114
         O 29 -- La 6              0.18        2.67114
         O 17 -- La 15             0.18        2.67114
         O 54 -- La 7              0.18        2.67114
         O 50 -- La 4              0.18        2.67114
         O 17 -- La 10             0.18        2.67114
         O 56 -- La 2              0.18        2.67114
         O 38 -- La 4              0.18        2.67114
         O 48 -- La 4              0.18        2.67114
         O 43 -- La 14             0.18        2.67114
         O 32 -- La 12             0.18        2.67114
         O 41 -- La 2              0.18        2.67114
         O 26 -- La 10             0.18        2.67114
         O 43 -- La 3              0.18        2.67114
         O 13 -- La 11             0.18        2.67114
         O 13 -- La 15             0.18        2.67114
         O 26 -- La 5              0.18        2.67114
         O 41 -- La 12             0.18        2.67114
         O 56 -- La 7              0.18        2.67114
         O 34 -- La 11             0.18        2.67114
         O 12 -- La 6              0.18        2.67114
         O 12 -- La 9              0.18        2.67114
         O 22 -- La 14             0.18        2.67114
         O 34 -- La 3              0.18        2.67114
         O 22 -- La 9              0.18        2.67114
         O 37 -- La 2              0.24        2.68339
         O 11 -- La 14             0.24        2.68339
         O 55 -- La 10             0.24        2.68339
         O 51 -- La 14             0.24        2.68339
         O 42 -- La 4              0.24        2.68339
         O 28 -- La 7              0.24        2.68339
         O 18 -- La 5              0.24        2.68339
         O 21 -- La 6              0.24        2.68339
         O 39 -- La 3              0.24        2.68339
         O 49 -- La 12             0.24        2.68339
         O 25 -- La 15             0.24        2.68339
         O 47 -- La 11             0.24        2.68339
         O 53 -- La 9              0.24        2.68339
         O 10 -- La 7              0.24        2.68339
         O 14 -- La 6              0.24        2.68339
         O 44 -- La 2              0.24        2.68339
         O 19 -- La 9              0.24        2.68339
         O 33 -- La 4              0.24        2.68339
         O 46 -- La 15             0.24        2.68339
         O 30 -- La 11             0.24        2.68339
         O 31 -- La 5              0.24        2.68339
         O 24 -- La 10             0.24        2.68339
         O 35 -- La 3              0.24        2.68339
         O 15 -- La 12             0.24        2.68339
         O 11 -- O 37             -0.05        2.79437
         O 47 -- O 51             -0.05        2.79437
         O 37 -- O 39             -0.05        2.79437
         O 18 -- O 21             -0.05        2.79437
         O 33 -- O 44             -0.05        2.79437
         O 18 -- O 25             -0.05        2.79437
         O 14 -- O 28             -0.05        2.79437
         O 51 -- O 55             -0.05        2.79437
         O 53 -- O 55             -0.05        2.79437
         O 46 -- O 53             -0.05        2.79437
         O 10 -- O 31             -0.05        2.79437
         O 11 -- O 21             -0.05        2.79437
         O 46 -- O 49             -0.05        2.79437
         O 24 -- O 44             -0.05        2.79437
         O 30 -- O 42             -0.05        2.79437
         O 19 -- O 35             -0.05        2.79437
         O 14 -- O 30             -0.05        2.79437
         O 35 -- O 42             -0.05        2.79437
         O 19 -- O 28             -0.05        2.79437
         O 25 -- O 39             -0.05        2.79437
         O 47 -- O 49             -0.05        2.79437
         O 15 -- O 31             -0.05        2.79437
         O 10 -- O 24             -0.05        2.79437
         O 15 -- O 33             -0.05        2.79437
         O 37 -- O 56             -0.05        2.80804
         O 18 -- O 26             -0.05        2.80804
         O 37 -- O 41             -0.05        2.80804
         O 38 -- O 55             -0.05        2.80804
         O 20 -- O 28             -0.05        2.80804
         O 26 -- O 55             -0.05        2.80804
         O 11 -- O 22             -0.05        2.80804
         O 34 -- O 39             -0.05        2.80804
         O 12 -- O 53             -0.05        2.80804
         O 12 -- O 21             -0.05        2.80804
         O 20 -- O 49             -0.05        2.80804
         O 38 -- O 42             -0.05        2.80804
         O 19 -- O 22             -0.05        2.80804
         O 23 -- O 47             -0.05        2.80804
         O 34 -- O 47             -0.05        2.80804
         O 18 -- O 50             -0.05        2.80804
         O 41 -- O 49             -0.05        2.80804
         O 21 -- O 48             -0.05        2.80804
         O 33 -- O 40             -0.05        2.80804
         O 28 -- O 56             -0.05        2.80804
         O 11 -- O 32             -0.05        2.80804
         O 40 -- O 53             -0.05        2.80804
         O 43 -- O 51             -0.05        2.80804
         O 13 -- O 25             -0.05        2.80804
         O 10 -- O 23             -0.05        2.80804
         O 42 -- O 50             -0.05        2.80804
         O 16 -- O 31             -0.05        2.80804
         O 39 -- O 54             -0.05        2.80804
         O 13 -- O 30             -0.05        2.80804
         O 35 -- O 43             -0.05        2.80804
         O 9  -- O 30             -0.05        2.80804
         O 14 -- O 29             -0.05        2.80804
         O 17 -- O 25             -0.05        2.80804
         O 16 -- O 51             -0.05        2.80804
         O 9  -- O 24             -0.05        2.80804
         O 36 -- O 44             -0.05        2.80804
         O 15 -- O 32             -0.05        2.80804
         O 29 -- O 46             -0.05        2.80804
         O 10 -- O 54             -0.05        2.80804
         O 44 -- O 52             -0.05        2.80804
         O 19 -- O 27             -0.05        2.80804
         O 36 -- O 46             -0.05        2.80804
         O 17 -- O 24             -0.05        2.80804
         O 33 -- O 48             -0.05        2.80804
         O 15 -- O 27             -0.05        2.80804
         O 14 -- O 52             -0.05        2.80804
         O 35 -- O 45             -0.05        2.80804
         O 31 -- O 45             -0.05        2.80804
         O 45 -- O 54             -0.03        2.82726
         O 27 -- O 40             -0.03        2.82726
         O 20 -- O 27             -0.03        2.82726
         O 17 -- O 36             -0.03        2.82726
         O 45 -- O 50             -0.03        2.82726
         O 48 -- O 52             -0.03        2.82726
         O 9  -- O 23             -0.03        2.82726
         O 16 -- O 32             -0.03        2.82726
         O 13 -- O 29             -0.03        2.82726
         O 9  -- O 38             -0.03        2.82726
         O 20 -- O 23             -0.03        2.82726
         O 52 -- O 56             -0.03        2.82726
         O 38 -- O 40             -0.03        2.82726
         O 48 -- O 50             -0.03        2.82726
         O 36 -- O 41             -0.03        2.82726
         O 12 -- O 29             -0.03        2.82726
         O 17 -- O 26             -0.03        2.82726
         O 16 -- O 26             -0.03        2.82726
         O 54 -- O 56             -0.03        2.82726
         O 22 -- O 43             -0.03        2.82726
         O 32 -- O 41             -0.03        2.82726
         O 34 -- O 43             -0.03        2.82726
         O 13 -- O 34             -0.03        2.82726
         O 12 -- O 22             -0.03        2.82726
============================================================
 

Writing analysis data to 20.castep_bin

Writing model to 20.check
 
 A BibTeX formatted list of references used in this run has been written to 
 20.bib
 
Initialisation time =     53.91 s
Calculation time    =  33859.09 s
Finalisation time   =     77.51 s
Total time          =  33990.51 s
Peak Memory Use     = 2844684 kB
  
Overall parallel efficiency rating: Good (78%)                                  
  
Data was distributed by:-
G-vector (4-way); efficiency rating: Good (79%)                                 
k-point (14-way); efficiency rating: Excellent (98%)                            
