 +-------------------------------------------------+
 |                                                 |
 |      CCC   AA    SSS  TTTTT  EEEEE  PPPP        |
 |     C     A  A  S       T    E      P   P       |
 |     C     AAAA   SS     T    EEE    PPPP        |
 |     C     A  A     S    T    E      P           |
 |      CCC  A  A  SSS     T    EEEEE  P           |
 |                                                 |
 +-------------------------------------------------+
 |                                                 |
 | Welcome to Academic Release CASTEP version 16.11|          
 | Ab Initio Total Energy Program                  |
 |                                                 |
 | Authors:                                        |
 | M. Segall, M. Probert, C. Pickard, P. Hasnip,   |
 | S. Clark, K. Refson, J. R. Yates, M. Payne      |
 |                                                 |
 | Contributors:                                   |
 | P. Lindan, P. Haynes, J. White, V. Milman,      |
 | N. Govind, M. Gibson, P. Tulip, V. Cocula,      |
 | B. Montanari, D. Quigley, M. Glover,            |
 | L. Bernasconi, A. Perlov, M. Plummer,           |
 | E. McNellis, J. Meyer, J. Gale, D. Jochym       |
 | J. Aarons, B. Walker, R. Gillen, D. Jones       |
 | T. Green, I. J. Bush, C. J. Armstrong,          |
 | E. J. Higgins, E. L. Brown, M. S. McFly         |
 |                                                 |
 | Copyright (c) 2000 - 2015                       |
 |                                                 |
 |     Distributed under the terms of an           |
 |     Agreement between the United Kingdom        |
 |     Car-Parrinello (UKCP) Consortium,           |
 |     Daresbury Laboratory and Accelrys, Inc.     |
 |                                                 |
 | Please cite                                     |
 |                                                 |
 |     "First principles methods using CASTEP"     |
 |                                                 |
 |         Zeitschrift fuer Kristallographie       |
 |           220(5-6) pp. 567-570 (2005)           |
 |                                                 |
 | S. J. Clark, M. D. Segall, C. J. Pickard,       |
 | P. J. Hasnip, M. J. Probert, K. Refson,         |
 | M. C. Payne                                     |
 |                                                 |
 |       in all publications arising from          |
 |              your use of CASTEP                 |
 |                                                 |
 +-------------------------------------------------+
 
 
 Compiled for linux_x86_64_ifort16 on Sat, 23 Jul 2016 23:44:54 +0100
 from code version 
 203e84763863+ Castep161_branch Fri, 04 Mar 2016 19:21:07 +0000
 Compiler: Intel Fortran 16.0.3.210; Optimisation: fast
 MATHLIBS: Intel MKL(11.3.3) (LAPACK version 3.6.0)
 FFT Lib : mkl
 Fundamental constants values: CODATA 2010
 
 Run started: Mon, 26 Mar 2018 15:36:24 +0100
 +-------------------------------------------------+
 |                                                 |
 |           N   N    M   M    RRRR                |
 |           NN  N    MM MM    R   R               |
 |           N N N    M M M    RRRR                |
 |           N  NN    M   M    R  R                |
 |           N   N    M   M    R   R               |
 |                                                 |
 +-------------------------------------------------+
 |                                                 |
 | Welcome to Materials Studio CASTEP-NMR          |
 |                                                 |
 | Authors:                                        |
 | J.R. Yates, C.J. Pickard, F. Mauri              |
 |                                                 |
 | Contributors:                                   |
 | T.F.G. Green, S.A. Joyce                        |
 |                                                 |
 | Copyright (c) 2004 - 2015                       |
 |                                                 |
 | Please cite the appropriate publications in all |
 | work arising from your use of CASTEP NMR.       |
 |                                                 |
 | For NMR Shielding Tensors cite:                 |
 |    "All-electron magnetic response with         |
 |    pseudopotentials: NMR chemical shifts",      |
 |    C. J. Pickard, F. Mauri;                     |
 |    Physical Review B63 245101 (2001), and       |
 |                                                 |
 |    "Calculation of NMR Chemical Shifts          |
 |    for extended systems using                   |
 |    Ultrasoft Pseudopotentials",                 |
 |    J. R. Yates, C. J. Pickard and F. Mauri      |
 |    Physical Review B76 024401 (2007)            |
 |                                                 |
 | For Electric Field Gradients cite:              |
 |   "Accurate First Principles Prediction of 17O  |
 |    NMR Parameters in SiO2: Assignment of the    |
 |    Zeolite Ferrierite Spectrum"                 |
 |    M. Profeta, F. Mauri and C. J. Pickard       |
 |    J. Amer. Chem. Soc. 125 541 (2003)           |
 |                                                 |
 | For Spin-Spin (J) Couplings cite:               |
 |   "A first principles theory of NMR J-coupling  |
 |   in solid-state systems"                       |
 |   S.A. Joyce, J.R. Yates, C.J. Pickard, F. Mauri|
 |   J. Chem. Phys. 127 204107 (2007)              |
 |                                                 |
 |   "Relativistic NMR J-coupling with ultrasoft   |
 |   pseudopotentials and the zeroth-order regular |
 |   approximation"                                |
 |   T.F.G. Green and J.R. Yates                   |
 |   J. Chem. Phys. 140 234106 (2014)              |
 |                                                 |
 +-------------------------------------------------+
 
 
 Atomic calculation performed for O: 1s2 2s2 2p4
 
 Converged in 44 iterations to an ae energy of -2040.855 eV
 
 
 Atomic calculation performed for O: 1s2 2s2 2p4
 
 Exceeded max iterations: converged to 0.000000062 eV
 
   ============================================================                
   | Pseudopotential Report - Date of generation 26-03-2018   |                
   ------------------------------------------------------------                
   | Element: O Ionic charge:  6.00 Level of theory: PBE      |                
   | Atomic Solver: ZORA (scalar)                             |                
   |                                                          |                
   |               Reference Electronic Structure             |                
   |         Orbital         Occupation         Energy        |                
   |            2s              2.000           -0.881        |                
   |            2p              4.000           -0.332        |                
   |                                                          |                
   |                 Pseudopotential Definition               |                
   |        Beta     l      e      Rc     scheme   norm       |                
   |          1      0   -0.881   1.100     qc      0         |                
   |          2      0    0.250   1.100     qc      0         |                
   |          3      1   -0.332   1.100     qc      0         |                
   |          4      1    0.250   1.100     qc      0         |                
   |         loc     2    0.000   1.100     pn      0         |                
   |                                                          |                
   | Augmentation charge Rinner = 0.769                       |                
   | Partial core correction Rc = 0.769                       |                
   ------------------------------------------------------------                
   | "2|1.1|15|18|20|20:21(qc=7)"                             |                
   ------------------------------------------------------------                
   |      Author: Chris J. Pickard, Cambridge University      |                
   ============================================================                
 
 Atomic calculation performed for Zr: 1s2 2s2 2p6 3s2 3p6 3d10 4s2 4p6 4d2 5s2
 
 Converged in 53 iterations to an ae energy of -97719.888 eV
 
 
 Atomic calculation performed for Zr: 1s2 2s2 2p6 3s2 3p6 3d10 4s2 4p6 4d2 5s2
 
 Exceeded max iterations: converged to 0.000000970 eV
 
 Warning: ion_atom_descreen_psp: negative charge density encountered
   ============================================================                
   | Pseudopotential Report - Date of generation 26-03-2018   |                
   ------------------------------------------------------------                
   | Element: Zr Ionic charge: 12.00 Level of theory: PBE     |                
   | Atomic Solver: ZORA (scalar)                             |                
   |                                                          |                
   |               Reference Electronic Structure             |                
   |         Orbital         Occupation         Energy        |                
   |            4s              2.000           -2.003        |                
   |            4p              6.000           -1.193        |                
   |            5s              2.000           -0.163        |                
   |            4d              2.000           -0.132        |                
   |                                                          |                
   |                 Pseudopotential Definition               |                
   |        Beta     l      e      Rc     scheme   norm       |                
   |          1      0   -2.003   2.105     qc      0         |                
   |          2      0   -0.163   2.105     qc      0         |                
   |          3      0    0.250   2.105     qc      0         |                
   |          4      1   -1.193   2.105     qc      0         |                
   |          5      1    0.250   2.105     qc      0         |                
   |          6      2   -0.132   2.105     qc      0         |                
   |          7      2    0.250   2.105     qc      0         |                
   |         loc     3    0.000   2.105     pn      0         |                
   |                                                          |                
   | Augmentation charge Rinner = 1.471                       |                
   | Partial core correction Rc = 1.471                       |                
   ------------------------------------------------------------                
   | "3|2.1|7|8|9|40U:50:41:42"                               |                
   ------------------------------------------------------------                
   |      Author: Chris J. Pickard, Cambridge University      |                
   ============================================================                
 
 Atomic calculation performed for Sn:
 1s2 2s2 2p6 3s2 3p6 3d10 4s2 4p6 4d10 5s2 5p2
 
 Converged in 58 iterations to an ae energy of -167539.320 eV
 
 
 Atomic calculation performed for Sn:
 1s2 2s2 2p6 3s2 3p6 3d10 4s2 4p6 4d10 5s2 5p2
 
 Exceeded max iterations: converged to 0.000001154 eV
 
   ============================================================                
   | Pseudopotential Report - Date of generation 26-03-2018   |                
   ------------------------------------------------------------                
   | Element: Sn Ionic charge: 14.00 Level of theory: PBE     |                
   | Atomic Solver: ZORA (scalar)                             |                
   |                                                          |                
   |               Reference Electronic Structure             |                
   |         Orbital         Occupation         Energy        |                
   |            4d             10.000           -0.950        |                
   |            5s              2.000           -0.388        |                
   |            5p              2.000           -0.136        |                
   |                                                          |                
   |                 Pseudopotential Definition               |                
   |        Beta     l      e      Rc     scheme   norm       |                
   |          1      0   -0.388   2.199     qc      0         |                
   |          2      0    0.250   2.199     qc      0         |                
   |          3      1   -0.136   2.199     qc      0         |                
   |          4      1    0.250   2.199     qc      0         |                
   |          5      2   -0.950   2.199     qc      0         |                
   |          6      2    0.250   2.199     qc      0         |                
   |         loc     3    0.000   2.199     pn      0         |                
   |                                                          |                
   | Augmentation charge Rinner = 1.537                       |                
   | Partial core correction Rc = 1.537                       |                
   ------------------------------------------------------------                
   | "3|2.2|7|8|9|50:51:42"                                   |                
   ------------------------------------------------------------                
   |      Author: Chris J. Pickard, Cambridge University      |                
   ============================================================                
 
 Atomic calculation performed for La:
 1s2 2s2 2p6 3s2 3p6 3d10 4s2 4p6 4d10 5s2 5p6 5d1 6s2
 
 Converged in 56 iterations to an ae energy of -230121.495 eV
 
 
 Atomic calculation performed for La:
 1s2 2s2 2p6 3s2 3p6 3d10 4s2 4p6 4d10 5s2 5p6 5d1 6s2
 
 Exceeded max iterations: converged to 0.000000907 eV
 
 Warning: ion_atom_descreen_psp: negative charge density encountered
   ============================================================                
   | Pseudopotential Report - Date of generation 26-03-2018   |                
   ------------------------------------------------------------                
   | Element: La Ionic charge: 11.00 Level of theory: PBE     |                
   | Atomic Solver: ZORA (scalar)                             |                
   |                                                          |                
   |               Reference Electronic Structure             |                
   |         Orbital         Occupation         Energy        |                
   |            5s              2.000           -1.430        |                
   |            5p              6.000           -0.823        |                
   |            6s              2.000           -0.135        |                
   |            5d              1.000           -0.114        |                
   |                                                          |                
   |                 Pseudopotential Definition               |                
   |        Beta     l      e      Rc     scheme   norm       |                
   |          1      0   -1.430   2.298     qc      0         |                
   |          2      0   -0.135   2.298     qc      0         |                
   |          3      0    0.250   2.298     qc      0         |                
   |          4      1   -0.823   2.298     qc      0         |                
   |          5      1    0.250   2.298     qc      0         |                
   |          6      2   -0.114   2.298     qc      0         |                
   |          7      2    0.250   2.298     qc      0         |                
   |         loc     2    0.000   2.298     pn      0         |                
   |                                                          |                
   | Augmentation charge Rinner = 1.606                       |                
   | Partial core correction Rc = 1.606                       |                
   ------------------------------------------------------------                
   | "2|2.3|5|6|7|50U:60:51:52(qc=4.5)"                       |                
   ------------------------------------------------------------                
   |      Author: Chris J. Pickard, Cambridge University      |                
   ============================================================                
 
 Pseudo atomic calculation performed for O 2s2 2p4
 
 Converged in 39 iterations to a total energy of -432.6554 eV
 
 
 Pseudo atomic calculation performed for Zr 4s2 4p6 4d2 5s2
 
 Converged in 38 iterations to a total energy of -1285.4931 eV
 
 
 Pseudo atomic calculation performed for Sn 4d10 5s2 5p2
 
 Converged in 48 iterations to a total energy of -2044.5414 eV
 
 
 Pseudo atomic calculation performed for La 5s2 5p6 5d1 6s2
 
 Converged in 34 iterations to a total energy of -968.0372 eV
 
 Calculation parallelised over 56 processes.
 Data is distributed by G-vector(4-way) and k-point(14-way)

 ************************************ Title ************************************
 nmr testing

 ***************************** General Parameters ******************************
  
 output verbosity                               : normal  (1)
 write checkpoint data to                       : 005.check
 type of calculation                            : Magnetic Resonance
 stress calculation                             : on
 density difference calculation                 : off
 electron localisation func (ELF) calculation   : off
 Hirshfeld analysis                             : off
 unlimited duration calculation
 timing information                             : on
 memory usage estimate                          : on
 write final potential to formatted file        : off
 write final density to formatted file          : off
 write structure in CIF formatted file          : on
 write structure in CELL formatted file         : on
 write BibTeX reference list                    : on
 write OTFG pseudopotential files               : on
 checkpoint writing                             : both castep_bin and check files
  
 output         length unit                     : A
 output           mass unit                     : amu
 output           time unit                     : ps
 output         charge unit                     : e
 output           spin unit                     : hbar/2
 output         energy unit                     : eV
 output          force unit                     : eV/A
 output       velocity unit                     : A/ps
 output       pressure unit                     : GPa
 output     inv_length unit                     : 1/A
 output      frequency unit                     : cm-1
 output force constant unit                     : eV/A**2
 output         volume unit                     : A**3
 output   IR intensity unit                     : (D/A)**2/amu
 output         dipole unit                     : D
 output         efield unit                     : eV/A/e
 output        entropy unit                     : J/mol/K
  
 wavefunctions paging                           : none
 random number generator seed                   : randomised (153626943)
 data distribution                              : optimal for this architecture
 optimization strategy                          : maximize speed(+++)

 *********************** Exchange-Correlation Parameters ***********************
  
 using functional                               : Perdew Burke Ernzerhof
 relativistic treatment                         : ZORA
 DFT+D: Semi-empirical dispersion correction    : off

 ************************* Pseudopotential Parameters **************************
  
 pseudopotential representation                 : reciprocal space
 <beta|phi> representation                      : reciprocal space
 spin-orbit coupling                            : off

 **************************** Basis Set Parameters *****************************
  
 plane wave basis set cut-off                   :   816.3416   eV
 size of standard grid                          :     1.7500
 size of   fine   gmax                          :    25.6161   1/A
 finite basis set correction                    : automatic
 number of sample energies                      :          3
           sample  spacing                      :     5.0000   eV

 **************************** Electronic Parameters ****************************
  
 number of  electrons                           :  724.0    
 net charge of system                           :  0.000    
 treating system as non-spin-polarized
 number of bands                                :        434

 ********************* Electronic Minimization Parameters **********************
  
 Method: Treating system as metallic with density mixing treatment of electrons,
         and number of  SD  steps               :          1
         and number of  CG  steps               :          4
  
 total energy / atom convergence tol.           : 0.1000E-08   eV
 eigen-energy convergence tolerance             : 0.2431E-09   eV
 max force / atom convergence tol.              : ignored
 convergence tolerance window                   :          3   cycles
 max. number of SCF cycles                      :         50
 number of fixed-spin iterations                :         10
 smearing scheme                                : Gaussian
 smearing width                                 : 0.2000       eV
 Fermi energy convergence tolerance             : 0.2721E-13   eV
 periodic dipole correction                     : NONE

 ************************** Density Mixing Parameters **************************
  
 density-mixing scheme                          : Broyden
 max. length of mixing history                  :         20
 charge density mixing amplitude                : 0.8000    
 cut-off energy for mixing                      :  816.3       eV

 *********************** Population Analysis Parameters ************************
  
 Population analysis with cutoff                :  3.000       A

 ************************ Magnetic Resonance Parameters ************************
  
 Magnetic Resonance Property                    : Chemical Shielding + EFG
 Position Operator Method                       : crystal
 max. number of MagRes CG steps                 :        250
 convergence tolerance window                   :          2   cycles
 energy convergence tolerance                   : 0.1000E-11   eV
 band convergence tolerance                     : 0.1000E-08   eV

 *******************************************************************************
  
 
                           -------------------------------
                                      Unit Cell
                           -------------------------------
        Real Lattice(A)                      Reciprocal Lattice(1/A)
  10.8959033   0.0069462  -0.0000281        0.5766560  -0.0003676   0.0000015
   0.0069462  10.8959033  -0.0000281       -0.0003676   0.5766560   0.0000015
  -0.0000280  -0.0000280  10.8928457        0.0000015   0.0000015   0.5768176
 
                       Lattice parameters(A)       Cell Angles
                    a =   10.895905          alpha =   90.000295
                    b =   10.895905          beta  =   90.000295
                    c =   10.892846          gamma =   89.926947
 
                       Current cell volume = 1293.205829       A**3
 
                           -------------------------------
                                     Cell Contents
                           -------------------------------
                         Total number of ions in cell =   88
                      Total number of species in cell =    4
                        Max number of any one species =   56
 
            xxxxxxxxxxxxxxxxxxxxxxxxxxxxxxxxxxxxxxxxxxxxxxxxxxxxxxxxxxxx
            x  Element    Atom        Fractional coordinates of atoms  x
            x            Number           u          v          w      x
            x----------------------------------------------------------x
            x  O            1         0.124687   0.124777   0.124835   x 
            x  O            2         0.625329   0.125235   0.624835   x 
            x  O            3         0.125213   0.625007   0.625131   x 
            x  O            4         0.624799   0.624997   0.125131   x 
            x  O            5         0.874765   0.374671   0.375165   x 
            x  O            6         0.875223   0.875313   0.875165   x 
            x  O            7         0.375003   0.375201   0.874869   x 
            x  O            8         0.374993   0.874787   0.374869   x 
            x  O            9         0.418820   0.125289   0.124543   x 
            x  O           10         0.331195   0.124715   0.624542   x 
            x  O           11         0.830708   0.625214   0.625160   x 
            x  O           12         0.919303   0.624788   0.125160   x 
            x  O           13         0.124991   0.419616   0.125153   x 
            x  O           14         0.623649   0.328523   0.125179   x 
            x  O           15         0.625013   0.830394   0.625153   x 
            x  O           16         0.126350   0.921482   0.625176   x 
            x  O           17         0.125972   0.125300   0.420494   x 
            x  O           18         0.124357   0.623999   0.330417   x 
            x  O           19         0.625646   0.626003   0.830417   x 
            x  O           20         0.624028   0.124702   0.920492   x 
            x  O           21         0.875285   0.668805   0.375458   x 
            x  O           22         0.874711   0.581180   0.875457   x 
            x  O           23         0.375212   0.080697   0.874840   x 
            x  O           24         0.374786   0.169292   0.374840   x 
            x  O           25         0.169606   0.374987   0.374847   x 
            x  O           26         0.078518   0.873650   0.374824   x 
            x  O           27         0.580384   0.875009   0.874847   x 
            x  O           28         0.671477   0.376351   0.874821   x 
            x  O           29         0.875298   0.375972   0.079508   x 
            x  O           30         0.373997   0.374354   0.169583   x 
            x  O           31         0.376001   0.875643   0.669583   x 
            x  O           32         0.874700   0.874028   0.579506   x 
            x  O           33         0.671323   0.874655   0.376208   x 
            x  O           34         0.078674   0.375343   0.876208   x 
            x  O           35         0.376181   0.670395   0.874816   x 
            x  O           36         0.874858   0.080657   0.375032   x 
            x  O           37         0.875100   0.376721   0.670994   x 
            x  O           38         0.374993   0.875878   0.079727   x 
            x  O           39         0.125345   0.328677   0.623792   x 
            x  O           40         0.624657   0.921326   0.123792   x 
            x  O           41         0.919343   0.125142   0.624968   x 
            x  O           42         0.329605   0.623819   0.125184   x 
            x  O           43         0.124122   0.625007   0.920273   x 
            x  O           44         0.623279   0.124900   0.329006   x 
            x  O           45         0.420403   0.626179   0.625182   x 
            x  O           46         0.830672   0.124861   0.124969   x 
            x  O           47         0.126722   0.125105   0.829005   x 
            x  O           48         0.625879   0.624994   0.420275   x 
            x  O           49         0.875139   0.169328   0.875031   x 
            x  O           50         0.373821   0.579597   0.374818   x 
            x  O           51         0.170788   0.875520   0.874495   x 
            x  O           52         0.579208   0.374478   0.374496   x 
            x  O           53         0.874895   0.873278   0.170995   x 
            x  O           54         0.375006   0.374121   0.579725   x 
            x  O           55         0.124480   0.829212   0.125505   x 
            x  O           56         0.625522   0.420792   0.625504   x 
            x  Zr           1         0.500093   0.499907   0.500000   x 
            x  Zr           2         0.249940   0.750060   0.000000   x 
            x  Zr           3         0.750120   1.000145   0.249998   x 
            x  Zr           4        -0.000145   0.249880   0.750002   x 
            x  Zr           5         0.750140   0.249860  -0.000000   x 
            x  Zr           6        -0.000179   1.000179   0.500000   x 
            x  Sn           1         0.251257   0.999859   0.750185   x 
            x  Sn           2         0.000141   0.748743   0.249815   x 
            x  Sn           3         0.499346   0.999862   0.999293   x 
            x  Sn           4         0.250654   0.250138   0.499293   x 
            x  Sn           5         0.749860   0.501259   0.749814   x 
            x  Sn           6         0.749862   0.749346   0.500707   x 
            x  Sn           7         0.249526   0.499527   0.250001   x 
            x  Sn           8         0.000138   0.500654   0.000707   x 
            x  Sn           9         0.498741   0.250140   0.250186   x 
            x  Sn          10         0.500473   0.750474   0.749999   x 
            x  La           1         0.999763   0.000237   0.000000   x 
            x  La           2         0.750238   0.249762   0.500000   x 
            x  La           3         0.250173   0.500173   0.750000   x 
            x  La           4         0.499827   0.749827   0.250000   x 
            x  La           5         0.250002   0.749998   0.500000   x 
            x  La           6         0.749431   0.499572   0.250299   x 
            x  La           7         0.500428   0.250569   0.749701   x 
            x  La           8         1.000053   0.499491   0.500382   x 
            x  La           9         0.749948   0.750510   0.000383   x 
            x  La          10         0.249571   0.999430   0.249702   x 
            x  La          11         0.249490   0.250052   0.999617   x 
            x  La          12         0.750789   0.000788   0.750001   x 
            x  La          13         0.500509  -0.000053   0.499618   x 
            x  La          14         0.000570   0.750429   0.750298   x 
            x  La          15         0.999212   0.249211   0.249999   x 
            x  La          16         0.499997   0.500003  -0.000000   x 
            xxxxxxxxxxxxxxxxxxxxxxxxxxxxxxxxxxxxxxxxxxxxxxxxxxxxxxxxxxxx
 
 
                         No user defined ionic velocities
 
                           -------------------------------
                                   Details of Species
                           -------------------------------
 
                               Mass of species in AMU
                                    O   15.9994000
                                    Zr   91.2240000
                                    Sn  118.7100000
                                    La  138.9055000
 
                          Electric Quadrupole Moment (Barn)
                                    O   -0.0255800 Isotope 17
                                    Zr   -0.1760000 Isotope 91
                                    Sn    1.0000000 No Isotope Defined
                                    La    0.2000000 Isotope139
 
                          Files used for pseudopotentials:
                                    O 2|1.1|15|18|20|20:21(qc=7)
                                    Zr 3|2.1|7|8|9|40U:50:41:42
                                    Sn 3|2.2|7|8|9|50:51:42
                                    La 2|2.3|5|6|7|50U:60:51:52(qc=4.5)
 
                           -------------------------------
                              k-Points For BZ Sampling
                           -------------------------------
                       MP grid size for SCF calculation is  3  3  3
                            with an offset of   0.000  0.000  0.000
                       Number of kpoints used =            14
 
                           -------------------------------
                               Symmetry and Constraints
                           -------------------------------
 
                      Maximum deviation from symmetry =  0.00000         ANG
 
         There are no symmetry operations specified or generated for this cell
                      Number of ionic constraints     =           3
                      Point group of crystal =     1: C1, 1, 1
                      Space group of crystal =     5: C2, C 2y
 
 
                         Centre of mass is constrained
             Set iprint > 1 for details of linear ionic constraints
 
                         Number of cell constraints= 0
                         Cell constraints are:  1 2 3 4 5 6
 
                         External pressure/stress (GPa)
                          0.00000   0.00000   0.00000
                                    0.00000   0.00000
                                              0.00000
  
+---------------- MEMORY AND SCRATCH DISK ESTIMATES PER PROCESS --------------+
|                                                     Memory          Disk    |
| Baseline code, static data and system overhead      322.0 MB         0.0 MB |
| BLAS internal memory storage                          0.0 MB         0.0 MB |
| Model and support data                             1318.6 MB         0.0 MB |
| Electronic energy minimisation requirements         382.8 MB         0.0 MB |
| Force calculation requirements                       24.1 MB         0.0 MB |
| Stress calculation requirements                      28.3 MB         0.0 MB |
|                                               ----------------------------- |
| Approx. total storage required per process         2023.4 MB         0.0 MB |
|                                                                             |
| Requirements will fluctuate during execution and may exceed these estimates |
+-----------------------------------------------------------------------------+
Calculating finite basis set correction with  3 cut-off energies.
Calculating total energy with cut-off of  806.342eV.
------------------------------------------------------------------------ <-- SCF
SCF loop      Energy           Fermi           Energy gain       Timer   <-- SCF
                               energy          per atom          (sec)   <-- SCF
------------------------------------------------------------------------ <-- SCF
Initial  -5.81357777E+004  0.00000000E+000                        76.43  <-- SCF
      1  -6.60363785E+004  7.47199173E+000   8.97795543E+001     218.43  <-- SCF
      2  -6.85845194E+004  6.61169050E+000   2.89561475E+001     311.57  <-- SCF
      3  -6.86687382E+004  6.22452336E+000   9.57031040E-001     413.70  <-- SCF
      4  -6.86604553E+004  7.52150283E+000  -9.41231260E-002     543.38  <-- SCF
      5  -6.85622166E+004  6.78082115E+000  -1.11634951E+000     670.80  <-- SCF
      6  -6.85634410E+004  6.67726438E+000   1.39139642E-002     835.15  <-- SCF
      7  -6.85630811E+004  6.75359218E+000  -4.08967386E-003     973.23  <-- SCF
      8  -6.85631819E+004  6.75934288E+000   1.14543179E-003    1155.95  <-- SCF
      9  -6.85632058E+004  6.76401916E+000   2.71182793E-004    1302.50  <-- SCF
     10  -6.85632053E+004  6.76323639E+000  -5.22845700E-006    1442.78  <-- SCF
     11  -6.85632054E+004  6.76547916E+000   9.95999255E-007    1584.03  <-- SCF
     12  -6.85632057E+004  6.76638960E+000   3.82905764E-006    1728.87  <-- SCF
     13  -6.85632058E+004  6.76653169E+000   3.21834869E-007    1864.45  <-- SCF
     14  -6.85632058E+004  6.76663493E+000  -7.32270608E-008    1995.12  <-- SCF
     15  -6.85632058E+004  6.76663181E+000  -9.76178008E-009    2134.60  <-- SCF
     16  -6.85632058E+004  6.76661482E+000  -3.35878018E-009    2258.50  <-- SCF
     17  -6.85632058E+004  6.76659382E+000  -4.54488547E-009    2370.51  <-- SCF
     18  -6.85632058E+004  6.76656983E+000  -4.92300487E-010    2468.35  <-- SCF
     19  -6.85632058E+004  6.76655186E+000   1.40195254E-010    2561.96  <-- SCF
------------------------------------------------------------------------ <-- SCF
 
Final energy, E             =  -68563.20575886     eV
Final free energy (E-TS)    =  -68563.20575886     eV
(energies not corrected for finite basis set)
 
NB est. 0K energy (E-0.5TS)      =  -68563.20575886     eV
 
Calculating total energy with cut-off of  811.342eV.
------------------------------------------------------------------------ <-- SCF
SCF loop      Energy           Fermi           Energy gain       Timer   <-- SCF
                               energy          per atom          (sec)   <-- SCF
------------------------------------------------------------------------ <-- SCF
Initial  -6.85632058E+004  0.00000000E+000                      2597.67  <-- SCF
      1  -6.85632083E+004  6.76654676E+000   2.83136610E-005    2710.91  <-- SCF
      2  -6.85632083E+004  6.76654676E+000   2.06847762E-010    2802.15  <-- SCF
      3  -6.85632083E+004  6.76654178E+000   1.64176095E-008    2892.18  <-- SCF
      4  -6.85632083E+004  6.76654891E+000   5.08190219E-010    2981.82  <-- SCF
      5  -6.85632083E+004  6.76654747E+000  -1.60303500E-010    3070.91  <-- SCF
------------------------------------------------------------------------ <-- SCF
 
Final energy, E             =  -68563.20825195     eV
Final free energy (E-TS)    =  -68563.20825195     eV
(energies not corrected for finite basis set)
 
NB est. 0K energy (E-0.5TS)      =  -68563.20825195     eV
 
Calculating total energy with cut-off of  816.342eV.
------------------------------------------------------------------------ <-- SCF
SCF loop      Energy           Fermi           Energy gain       Timer   <-- SCF
                               energy          per atom          (sec)   <-- SCF
------------------------------------------------------------------------ <-- SCF
Initial  -6.85632083E+004  0.00000000E+000                      3107.01  <-- SCF
      1  -6.85632113E+004  6.76654765E+000   3.40752430E-005    3221.99  <-- SCF
      2  -6.85632113E+004  6.76654765E+000   2.12613064E-010    3310.62  <-- SCF
      3  -6.85632113E+004  6.76654342E+000   2.10392719E-008    3399.75  <-- SCF
      4  -6.85632113E+004  6.76654612E+000   6.83820984E-010    3487.78  <-- SCF
      5  -6.85632113E+004  6.76654458E+000  -7.71987909E-011    3575.17  <-- SCF
------------------------------------------------------------------------ <-- SCF
 
Final energy, E             =  -68563.21125249     eV
Final free energy (E-TS)    =  -68563.21125249     eV
(energies not corrected for finite basis set)
 
NB est. 0K energy (E-0.5TS)      =  -68563.21125249     eV
 
 For future reference: finite basis dEtot/dlog(Ecut) =      -0.441569eV
 Total energy corrected for finite basis set =  -68563.211242 eV
 
  =====================================================================
  +       Calculation of Nuclear Magnetic Resonance Parameters        +
  + ================================================================= +
 
  Starting Calculation of Electric Field Gradient Tensors         |<-- EFG
  +---------------- MEMORY AND SCRATCH DISK ESTIMATES PER PROCESS --------------+
  |                                                     Memory          Disk    |
  | Model and support data                             1316.3 MB         0.0 MB |
  | NMR EFG calculation requirements                    368.6 MB         0.0 MB |
  |                                               ----------------------------- |
  | Approx. total storage required per process         1684.9 MB         0.0 MB |
  |                                                                             |
  | Requirements will fluctuate during execution and may exceed these estimates |
  +-----------------------------------------------------------------------------+
  Total Time for EFG Tensors                     382.17 sec       |<-- EFG
 
  Starting Calculation of Chemical Shielding Tensors              |<-- NMR
  +---------------- MEMORY AND SCRATCH DISK ESTIMATES PER PROCESS --------------+
  |                                                     Memory          Disk    |
  | Model and support data                             1316.3 MB         0.0 MB |
  | NMR chemical shift calculation requirements         566.0 MB         0.0 MB |
  |                                               ----------------------------- |
  | Approx. total storage required per process         1882.3 MB         0.0 MB |
  |                                                                             |
  | Requirements will fluctuate during execution and may exceed these estimates |
  +-----------------------------------------------------------------------------+
  Starting k-point:   1 of   1                                    |<-- NMR
  Total Time for step 1 of 6:                   3243.53 sec       |<-- NMR
  Total Time for step 2 of 6:                   3262.81 sec       |<-- NMR
  Total Time for step 3 of 6:                   3241.15 sec       |<-- NMR
  Total Time for step 4 of 6:                   3256.80 sec       |<-- NMR
  Total Time for step 5 of 6:                   3241.48 sec       |<-- NMR
  Total Time for step 6 of 6:                   3261.03 sec       |<-- NMR
  Total Time for Chemical Shielding Tensors    29366.46 sec       |<-- NMR
 
  ========================================================================
  |           Chemical Shielding and Electric Field Gradient Tensors     |
  |----------------------------------------------------------------------|
  |     Nucleus                Shielding tensor             EFG Tensor   |
  |  Species       Ion    Iso(ppm)   Aniso(ppm)  Asym    Cq(MHz)    Eta  |
  |    O           1     -318.97     -11.39      0.85   3.550E-02   0.69 |
  |    O           2     -318.96     -11.62      0.86   3.649E-02   0.69 |
  |    O           3     -318.01      16.22      0.74  -2.278E-02   0.12 |
  |    O           4     -318.00      16.15      0.75  -2.296E-02   0.12 |
  |    O           5     -318.96     -11.62      0.86   3.649E-02   0.69 |
  |    O           6     -318.97     -11.39      0.86   3.550E-02   0.69 |
  |    O           7     -318.00      16.13      0.75  -2.296E-02   0.12 |
  |    O           8     -318.01      16.21      0.75  -2.278E-02   0.12 |
  |    O           9       -1.65      66.72      0.95   3.788E+00   0.93 |
  |    O          10       -1.75      66.73      0.95   3.787E+00   0.93 |
  |    O          11       -5.66      58.32      0.68   3.893E+00   0.88 |
  |    O          12       -5.65      58.30      0.69   3.893E+00   0.88 |
  |    O          13       -9.88      60.20      0.57   3.860E+00   0.89 |
  |    O          14      -85.98      88.03      0.24  -3.129E+00   0.08 |
  |    O          15       -9.93      60.18      0.57   3.860E+00   0.89 |
  |    O          16      -85.90      87.63      0.24  -3.130E+00   0.08 |
  |    O          17      -85.33      85.84      0.09  -3.223E+00   0.06 |
  |    O          18       -8.27      60.97      0.59   3.877E+00   0.89 |
  |    O          19       -8.26      60.93      0.59   3.877E+00   0.89 |
  |    O          20      -85.38      85.98      0.09  -3.222E+00   0.07 |
  |    O          21       -1.75      66.71      0.96   3.787E+00   0.93 |
  |    O          22       -1.64      66.69      0.95   3.788E+00   0.93 |
  |    O          23       -5.65      58.28      0.69   3.893E+00   0.88 |
  |    O          24       -5.67      58.30      0.69   3.893E+00   0.88 |
  |    O          25       -9.93      60.20      0.57   3.860E+00   0.89 |
  |    O          26      -85.90      87.63      0.24  -3.130E+00   0.08 |
  |    O          27       -9.88      60.22      0.57   3.860E+00   0.89 |
  |    O          28      -85.98      88.04      0.24  -3.129E+00   0.08 |
  |    O          29      -85.38      85.98      0.09  -3.222E+00   0.07 |
  |    O          30       -8.25      60.93      0.59   3.877E+00   0.89 |
  |    O          31       -8.27      60.97      0.59   3.877E+00   0.89 |
  |    O          32      -85.33      85.83      0.09  -3.223E+00   0.06 |
  |    O          33      -84.87      84.58      0.22  -3.155E+00   0.08 |
  |    O          34      -84.88      84.71      0.22  -3.155E+00   0.08 |
  |    O          35      -89.88      83.95      0.22  -3.172E+00   0.06 |
  |    O          36     -161.68     153.82      0.85   1.031E+00   0.76 |
  |    O          37      -86.93      86.12      0.09  -3.204E+00   0.08 |
  |    O          38      -89.11      83.61      0.18  -3.193E+00   0.06 |
  |    O          39      -84.87      84.59      0.22  -3.155E+00   0.08 |
  |    O          40      -84.88      84.70      0.22  -3.155E+00   0.08 |
  |    O          41     -161.68     153.85      0.85   1.031E+00   0.76 |
  |    O          42      -89.88      83.96      0.22  -3.172E+00   0.06 |
  |    O          43      -89.11      83.61      0.18  -3.193E+00   0.06 |
  |    O          44      -86.93      86.12      0.09  -3.204E+00   0.08 |
  |    O          45      -89.78      83.66      0.22  -3.173E+00   0.06 |
  |    O          46     -161.75     153.63      0.85   1.029E+00   0.76 |
  |    O          47      -86.93      85.87      0.09  -3.204E+00   0.08 |
  |    O          48      -89.07      83.56      0.18  -3.193E+00   0.06 |
  |    O          49     -161.75     153.60      0.85   1.029E+00   0.76 |
  |    O          50      -89.78      83.65      0.22  -3.173E+00   0.06 |
  |    O          51      -92.86      93.71      0.27  -3.150E+00   0.07 |
  |    O          52      -92.81      93.93      0.27  -3.150E+00   0.07 |
  |    O          53      -86.93      85.87      0.09  -3.204E+00   0.08 |
  |    O          54      -89.07      83.55      0.18  -3.193E+00   0.06 |
  |    O          55      -92.86      93.69      0.27  -3.150E+00   0.07 |
  |    O          56      -92.81      93.92      0.27  -3.150E+00   0.07 |
  |    Zr          1     1596.24    -110.88      0.06  -3.420E+01   0.04 |
  |    Zr          2     1596.07    -110.90      0.06  -3.422E+01   0.03 |
  |    Zr          3     1625.07    -124.76      0.15  -3.595E+01   0.06 |
  |    Zr          4     1625.07    -124.76      0.15  -3.595E+01   0.06 |
  |    Zr          5     1625.70    -122.10      0.05  -3.593E+01   0.12 |
  |    Zr          6     1625.91    -122.14      0.05  -3.593E+01   0.13 |
  |    Sn          1     3253.57     -61.08      0.44   1.242E+02   0.07 |
  |    Sn          2     3253.57     -61.10      0.44   1.242E+02   0.07 |
  |    Sn          3     3255.80     -58.35      0.43   1.247E+02   0.16 |
  |    Sn          4     3255.73     -58.35      0.43   1.248E+02   0.16 |
  |    Sn          5     3253.59     -61.11      0.44   1.242E+02   0.07 |
  |    Sn          6     3255.73     -58.36      0.43   1.248E+02   0.16 |
  |    Sn          7     3252.35     -60.21      0.35   1.216E+02   0.07 |
  |    Sn          8     3255.80     -58.37      0.43   1.247E+02   0.16 |
  |    Sn          9     3253.59     -61.10      0.44   1.242E+02   0.07 |
  |    Sn         10     3252.35     -60.21      0.35   1.216E+02   0.07 |
  |    La          1     4697.61     769.50      0.02  -8.625E+01   0.02 |
  |    La          2     4697.60     770.21      0.02  -8.636E+01   0.02 |
  |    La          3     4657.13     648.67      0.00  -8.567E+01   0.02 |
  |    La          4     4657.13     648.67      0.00  -8.567E+01   0.02 |
  |    La          5     4606.27     547.16      0.04  -7.918E+01   0.17 |
  |    La          6     4605.39     518.52      0.07  -7.942E+01   0.08 |
  |    La          7     4605.39     518.52      0.07  -7.942E+01   0.08 |
  |    La          8     4549.29     384.08      0.06  -7.345E+01   0.10 |
  |    La          9     4549.30     384.24      0.06  -7.351E+01   0.10 |
  |    La         10     4605.34     518.28      0.07  -7.941E+01   0.08 |
  |    La         11     4549.30     384.24      0.06  -7.351E+01   0.10 |
  |    La         12     4650.73     620.40      0.01  -8.142E+01   0.04 |
  |    La         13     4549.29     384.07      0.06  -7.345E+01   0.10 |
  |    La         14     4605.34     518.28      0.07  -7.941E+01   0.08 |
  |    La         15     4650.73     620.40      0.01  -8.142E+01   0.04 |
  |    La         16     4606.35     547.74      0.04  -7.917E+01   0.17 |
  ========================================================================
 
 *********************** Forces ***********************
 *                                                    *
 *            Cartesian components (eV/A)             *
 * -------------------------------------------------- *
 *                   x            y            z      *
 *                                                    *
 * O         1     -0.01028     -0.00117     -0.00131 *
 * O         2      0.00957      0.00157     -0.00148 *
 * O         3     -0.00110      0.00085     -0.00064 *
 * O         4     -0.00022     -0.00172     -0.00080 *
 * O         5     -0.00157     -0.00957      0.00148 *
 * O         6      0.00117      0.01028      0.00131 *
 * O         7      0.00172      0.00022      0.00080 *
 * O         8     -0.00085      0.00110      0.00064 *
 * O         9      0.00268      0.00317      0.00108 *
 * O        10     -0.00244     -0.00224      0.00123 *
 * O        11     -0.00077     -0.00060      0.00371 *
 * O        12     -0.00033      0.00056      0.00322 *
 * O        13      0.00463     -0.00742      0.01604 *
 * O        14     -0.01959      0.00404      0.02701 *
 * O        15     -0.00498      0.00784      0.01630 *
 * O        16      0.01829     -0.00269      0.02644 *
 * O        17      0.02310      0.02289     -0.01106 *
 * O        18     -0.00145     -0.00719      0.00138 *
 * O        19      0.00108      0.00737      0.00130 *
 * O        20     -0.02420     -0.02163     -0.01097 *
 * O        21      0.00224      0.00244     -0.00123 *
 * O        22     -0.00317     -0.00268     -0.00108 *
 * O        23     -0.00056      0.00033     -0.00323 *
 * O        24      0.00060      0.00077     -0.00371 *
 * O        25     -0.00784      0.00498     -0.01630 *
 * O        26      0.00269     -0.01829     -0.02644 *
 * O        27      0.00742     -0.00463     -0.01604 *
 * O        28     -0.00404      0.01959     -0.02701 *
 * O        29      0.02163      0.02420      0.01097 *
 * O        30     -0.00737     -0.00108     -0.00130 *
 * O        31      0.00719      0.00145     -0.00138 *
 * O        32     -0.02289     -0.02310      0.01106 *
 * O        33     -0.00220     -0.01789      0.00963 *
 * O        34      0.00129      0.01910      0.01011 *
 * O        35      0.01593      0.00059     -0.02454 *
 * O        36     -0.00706     -0.00016     -0.00013 *
 * O        37     -0.02644      0.01066     -0.00566 *
 * O        38      0.02258      0.01611      0.00005 *
 * O        39      0.01789      0.00220     -0.00963 *
 * O        40     -0.01910     -0.00129     -0.01011 *
 * O        41      0.00016      0.00706      0.00013 *
 * O        42     -0.00059     -0.01593      0.02454 *
 * O        43     -0.01611     -0.02258     -0.00005 *
 * O        44     -0.01066      0.02644      0.00566 *
 * O        45      0.00107      0.01557      0.02457 *
 * O        46     -0.00260     -0.00476      0.00023 *
 * O        47      0.00972     -0.02432      0.00524 *
 * O        48      0.01583      0.02234      0.00012 *
 * O        49      0.00476      0.00260     -0.00023 *
 * O        50     -0.01557     -0.00107     -0.02457 *
 * O        51     -0.00099      0.02556     -0.01058 *
 * O        52      0.00143     -0.02653     -0.01135 *
 * O        53      0.02432     -0.00972     -0.00524 *
 * O        54     -0.02234     -0.01583     -0.00012 *
 * O        55     -0.02556      0.00099      0.01058 *
 * O        56      0.02653     -0.00143      0.01135 *
 * Zr        1     -0.02243      0.02243     -0.00000 *
 * Zr        2      0.00671     -0.00671      0.00000 *
 * Zr        3     -0.01264     -0.02969     -0.00166 *
 * Zr        4      0.02969      0.01264      0.00166 *
 * Zr        5     -0.01018      0.01018      0.00000 *
 * Zr        6      0.03499     -0.03499     -0.00000 *
 * Sn        1     -0.01199      0.00537     -0.01122 *
 * Sn        2     -0.00537      0.01199      0.01122 *
 * Sn        3     -0.00163      0.00403      0.01431 *
 * Sn        4      0.00054     -0.00385      0.01469 *
 * Sn        5      0.00551     -0.00875      0.01095 *
 * Sn        6      0.00385     -0.00054     -0.01469 *
 * Sn        7      0.01523      0.01574      0.00120 *
 * Sn        8     -0.00403      0.00163     -0.01431 *
 * Sn        9      0.00875     -0.00551     -0.01095 *
 * Sn       10     -0.01574     -0.01523     -0.00120 *
 * La        1      0.01630     -0.01630      0.00000 *
 * La        2     -0.01646      0.01646     -0.00000 *
 * La        3     -0.00134     -0.00089     -0.00058 *
 * La        4      0.00089      0.00134      0.00058 *
 * La        5     -0.00296      0.00296     -0.00000 *
 * La        6      0.00846      0.00558     -0.00583 *
 * La        7     -0.00558     -0.00846      0.00583 *
 * La        8     -0.00128      0.00527     -0.00237 *
 * La        9      0.00153     -0.00403     -0.00153 *
 * La       10      0.00357      0.00742      0.00620 *
 * La       11      0.00403     -0.00153      0.00153 *
 * La       12     -0.02479     -0.02468      0.00051 *
 * La       13     -0.00527      0.00128      0.00237 *
 * La       14     -0.00742     -0.00358     -0.00620 *
 * La       15      0.02468      0.02479     -0.00051 *
 * La       16      0.00174     -0.00174      0.00000 *
 *                                                    *
 ******************************************************
 
 ***************** Stress Tensor *****************
 *                                               *
 *          Cartesian components (GPa)           *
 * --------------------------------------------- *
 *             x             y             z     *
 *                                               *
 *  x     -0.018825      0.007424     -0.000033  *
 *  y      0.007424     -0.018825     -0.000033  *
 *  z     -0.000033     -0.000033     -0.014942  *
 *                                               *
 *  Pressure:    0.0175                          *
 *                                               *
 *************************************************
 
 Pseudo atomic calculation performed for O 2s2 2p4
 
 Converged in 39 iterations to a total energy of -432.6554 eV
 
 
 Pseudo atomic calculation performed for Zr 4s2 4p6 4d2 5s2
 
 Converged in 38 iterations to a total energy of -1285.4931 eV
 
 
 Pseudo atomic calculation performed for Sn 4d10 5s2 5p2
 
 Converged in 48 iterations to a total energy of -2044.5414 eV
 
 
 Pseudo atomic calculation performed for La 5s2 5p6 5d1 6s2
 
 Converged in 34 iterations to a total energy of -968.0372 eV
 
Charge spilling parameter for spin component 1 = 0.25%
 
     Atomic Populations (Mulliken)
     -----------------------------
Species   Ion     s      p      d      f     Total  Charge (e)
==============================================================
  O        1     1.87   5.00   0.00   0.00   6.87    -0.87
  O        2     1.87   5.00   0.00   0.00   6.87    -0.87
  O        3     1.87   5.00   0.00   0.00   6.87    -0.87
  O        4     1.87   5.00   0.00   0.00   6.87    -0.87
  O        5     1.87   5.00   0.00   0.00   6.87    -0.87
  O        6     1.87   5.00   0.00   0.00   6.87    -0.87
  O        7     1.87   5.00   0.00   0.00   6.87    -0.87
  O        8     1.87   5.00   0.00   0.00   6.87    -0.87
  O        9     1.88   5.02   0.00   0.00   6.91    -0.91
  O       10     1.88   5.02   0.00   0.00   6.91    -0.91
  O       11     1.88   5.03   0.00   0.00   6.91    -0.91
  O       12     1.88   5.03   0.00   0.00   6.91    -0.91
  O       13     1.88   5.03   0.00   0.00   6.91    -0.91
  O       14     1.87   4.99   0.00   0.00   6.86    -0.86
  O       15     1.88   5.03   0.00   0.00   6.91    -0.91
  O       16     1.87   4.99   0.00   0.00   6.86    -0.86
  O       17     1.87   4.99   0.00   0.00   6.86    -0.86
  O       18     1.88   5.03   0.00   0.00   6.91    -0.91
  O       19     1.88   5.03   0.00   0.00   6.91    -0.91
  O       20     1.87   4.99   0.00   0.00   6.86    -0.86
  O       21     1.88   5.02   0.00   0.00   6.91    -0.91
  O       22     1.88   5.02   0.00   0.00   6.91    -0.91
  O       23     1.88   5.03   0.00   0.00   6.91    -0.91
  O       24     1.88   5.03   0.00   0.00   6.91    -0.91
  O       25     1.88   5.03   0.00   0.00   6.91    -0.91
  O       26     1.87   4.99   0.00   0.00   6.86    -0.86
  O       27     1.88   5.03   0.00   0.00   6.91    -0.91
  O       28     1.87   4.99   0.00   0.00   6.86    -0.86
  O       29     1.87   4.99   0.00   0.00   6.86    -0.86
  O       30     1.88   5.03   0.00   0.00   6.91    -0.91
  O       31     1.88   5.03   0.00   0.00   6.91    -0.91
  O       32     1.87   4.99   0.00   0.00   6.86    -0.86
  O       33     1.87   4.99   0.00   0.00   6.86    -0.86
  O       34     1.87   4.99   0.00   0.00   6.86    -0.86
  O       35     1.87   4.99   0.00   0.00   6.86    -0.86
  O       36     1.86   4.95   0.00   0.00   6.80    -0.80
  O       37     1.87   4.99   0.00   0.00   6.86    -0.86
  O       38     1.87   4.99   0.00   0.00   6.86    -0.86
  O       39     1.87   4.99   0.00   0.00   6.86    -0.86
  O       40     1.87   4.99   0.00   0.00   6.86    -0.86
  O       41     1.86   4.95   0.00   0.00   6.80    -0.80
  O       42     1.87   4.99   0.00   0.00   6.86    -0.86
  O       43     1.87   4.99   0.00   0.00   6.86    -0.86
  O       44     1.87   4.99   0.00   0.00   6.86    -0.86
  O       45     1.87   4.99   0.00   0.00   6.86    -0.86
  O       46     1.86   4.95   0.00   0.00   6.80    -0.80
  O       47     1.87   4.99   0.00   0.00   6.86    -0.86
  O       48     1.87   4.99   0.00   0.00   6.86    -0.86
  O       49     1.86   4.95   0.00   0.00   6.80    -0.80
  O       50     1.87   4.99   0.00   0.00   6.86    -0.86
  O       51     1.87   4.99   0.00   0.00   6.86    -0.86
  O       52     1.87   4.99   0.00   0.00   6.86    -0.86
  O       53     1.87   4.99   0.00   0.00   6.86    -0.86
  O       54     1.87   4.99   0.00   0.00   6.86    -0.86
  O       55     1.87   4.99   0.00   0.00   6.86    -0.86
  O       56     1.87   4.99   0.00   0.00   6.86    -0.86
  Zr       1     2.37   6.50   1.92   0.00  10.79     1.21
  Zr       2     2.37   6.50   1.92   0.00  10.79     1.21
  Zr       3     2.37   6.48   1.92   0.00  10.77     1.23
  Zr       4     2.37   6.48   1.92   0.00  10.77     1.23
  Zr       5     2.37   6.48   1.92   0.00  10.77     1.23
  Zr       6     2.37   6.48   1.92   0.00  10.77     1.23
  Sn       1     1.05   1.31  10.00   0.00  12.35     1.65
  Sn       2     1.05   1.31  10.00   0.00  12.35     1.65
  Sn       3     1.04   1.31  10.00   0.00  12.35     1.65
  Sn       4     1.04   1.31  10.00   0.00  12.35     1.65
  Sn       5     1.05   1.31  10.00   0.00  12.35     1.65
  Sn       6     1.04   1.31  10.00   0.00  12.35     1.65
  Sn       7     1.05   1.31  10.00   0.00  12.35     1.65
  Sn       8     1.04   1.31  10.00   0.00  12.35     1.65
  Sn       9     1.05   1.31  10.00   0.00  12.35     1.65
  Sn      10     1.05   1.31  10.00   0.00  12.35     1.65
  La       1     2.04   6.16   1.20   0.00   9.40     1.60
  La       2     2.04   6.16   1.20   0.00   9.40     1.60
  La       3     2.04   6.17   1.19   0.00   9.41     1.59
  La       4     2.04   6.17   1.19   0.00   9.41     1.59
  La       5     2.08   6.18   1.19   0.00   9.46     1.54
  La       6     2.06   6.19   1.19   0.00   9.44     1.56
  La       7     2.06   6.19   1.19   0.00   9.44     1.56
  La       8     2.09   6.19   1.19   0.00   9.48     1.52
  La       9     2.09   6.19   1.19   0.00   9.48     1.52
  La      10     2.06   6.19   1.19   0.00   9.44     1.56
  La      11     2.09   6.19   1.19   0.00   9.48     1.52
  La      12     2.04   6.18   1.19   0.00   9.41     1.59
  La      13     2.09   6.19   1.19   0.00   9.48     1.52
  La      14     2.06   6.19   1.19   0.00   9.44     1.56
  La      15     2.04   6.18   1.19   0.00   9.41     1.59
  La      16     2.08   6.18   1.19   0.00   9.46     1.54
==============================================================
 
            Bond              Population      Length (A)
============================================================
         O 33 -- Sn 6              0.34        2.10539
         O 39 -- Sn 4              0.34        2.10539
         O 40 -- Sn 3              0.34        2.10539
         O 34 -- Sn 8              0.34        2.10539
         O 48 -- Sn 6              0.35        2.10549
         O 54 -- Sn 4              0.35        2.10549
         O 43 -- Sn 8              0.35        2.10551
         O 38 -- Sn 3              0.35        2.10551
         O 37 -- Sn 5              0.34        2.10616
         O 44 -- Sn 9              0.34        2.10616
         O 53 -- Sn 2              0.34        2.10618
         O 47 -- Sn 1              0.34        2.10618
         O 32 -- Sn 6              0.35        2.10647
         O 17 -- Sn 4              0.35        2.10647
         O 29 -- Sn 8              0.35        2.10651
         O 20 -- Sn 3              0.35        2.10651
         O 16 -- Sn 1              0.34        2.10683
         O 26 -- Sn 2              0.34        2.10683
         O 14 -- Sn 9              0.34        2.10686
         O 28 -- Sn 5              0.34        2.10686
         O 23 -- Sn 3              0.34        2.10711
         O 12 -- Sn 8              0.34        2.10711
         O 24 -- Sn 4              0.34        2.10715
         O 11 -- Sn 6              0.34        2.10715
         O 52 -- Sn 9              0.34        2.10730
         O 56 -- Sn 5              0.34        2.10730
         O 55 -- Sn 2              0.34        2.10733
         O 51 -- Sn 1              0.34        2.10733
         O 30 -- Sn 9              0.34        2.10840
         O 19 -- Sn 5              0.34        2.10840
         O 31 -- Sn 1              0.34        2.10841
         O 18 -- Sn 2              0.34        2.10841
         O 23 -- Sn 1              0.34        2.10871
         O 12 -- Sn 2              0.34        2.10871
         O 50 -- Sn 7              0.34        2.10875
         O 45 -- Sn 10             0.34        2.10875
         O 24 -- Sn 9              0.34        2.10878
         O 11 -- Sn 5              0.34        2.10878
         O 42 -- Sn 7              0.34        2.10879
         O 35 -- Sn 10             0.34        2.10879
         O 27 -- Sn 10             0.34        2.10993
         O 13 -- Sn 7              0.34        2.10993
         O 25 -- Sn 7              0.34        2.11000
         O 15 -- Sn 10             0.34        2.11000
         O 31 -- Sn 10             0.33        2.11234
         O 18 -- Sn 7              0.33        2.11234
         O 30 -- Sn 7              0.33        2.11237
         O 19 -- Sn 10             0.33        2.11237
         O 13 -- Sn 8              0.33        2.11301
         O 27 -- Sn 3              0.33        2.11301
         O 15 -- Sn 6              0.33        2.11304
         O 25 -- Sn 4              0.33        2.11304
         O 36 -- Zr 6              0.41        2.11490
         O 41 -- Zr 6              0.41        2.11490
         O 46 -- Zr 3              0.41        2.11537
         O 49 -- Zr 4              0.41        2.11537
         O 36 -- Zr 3              0.41        2.11538
         O 41 -- Zr 4              0.41        2.11538
         O 46 -- Zr 5              0.41        2.11541
         O 49 -- Zr 5              0.41        2.11541
         O 56 -- Zr 1              0.44        2.11584
         O 52 -- Zr 1              0.44        2.11584
         O 55 -- Zr 2              0.44        2.11624
         O 51 -- Zr 2              0.44        2.11624
         O 9  -- Sn 9              0.34        2.11778
         O 22 -- Sn 5              0.34        2.11778
         O 21 -- Sn 2              0.34        2.11791
         O 10 -- Sn 1              0.34        2.11791
         O 28 -- Zr 5              0.44        2.11906
         O 14 -- Zr 5              0.44        2.11906
         O 16 -- Zr 6              0.44        2.11946
         O 26 -- Zr 6              0.44        2.11946
         O 44 -- Zr 3              0.45        2.11984
         O 37 -- Zr 4              0.45        2.11984
         O 38 -- Zr 2              0.44        2.12012
         O 43 -- Zr 2              0.44        2.12012
         O 47 -- Zr 4              0.44        2.12013
         O 53 -- Zr 3              0.44        2.12013
         O 54 -- Zr 1              0.44        2.12013
         O 48 -- Zr 1              0.44        2.12013
         O 22 -- Sn 8              0.33        2.12034
         O 9  -- Sn 3              0.33        2.12034
         O 10 -- Sn 4              0.33        2.12038
         O 21 -- Sn 6              0.33        2.12038
         O 34 -- Zr 4              0.44        2.12114
         O 40 -- Zr 3              0.44        2.12114
         O 33 -- Zr 3              0.44        2.12127
         O 39 -- Zr 4              0.44        2.12127
         O 35 -- Zr 2              0.44        2.12176
         O 42 -- Zr 2              0.44        2.12176
         O 20 -- Zr 5              0.44        2.12196
         O 29 -- Zr 5              0.44        2.12196
         O 17 -- Zr 6              0.44        2.12198
         O 32 -- Zr 6              0.44        2.12198
         O 50 -- Zr 1              0.44        2.12208
         O 45 -- Zr 1              0.44        2.12208
         O 2  -- La 2              0.18        2.35524
         O 5  -- La 2              0.18        2.35524
         O 1  -- La 1              0.18        2.35540
         O 6  -- La 1              0.18        2.35540
         O 8  -- La 4              0.18        2.35569
         O 3  -- La 3              0.18        2.35569
         O 7  -- La 3              0.18        2.35575
         O 4  -- La 4              0.18        2.35575
         O 2  -- La 12             0.18        2.35828
         O 5  -- La 15             0.18        2.35828
         O 6  -- La 12             0.18        2.35828
         O 1  -- La 15             0.18        2.35828
         O 1  -- La 10             0.18        2.35842
         O 6  -- La 14             0.18        2.35842
         O 5  -- La 6              0.18        2.35845
         O 2  -- La 7              0.18        2.35845
         O 7  -- La 7              0.17        2.35923
         O 4  -- La 6              0.17        2.35923
         O 8  -- La 5              0.17        2.35926
         O 3  -- La 5              0.17        2.35926
         O 8  -- La 10             0.17        2.35928
         O 3  -- La 14             0.17        2.35928
         O 7  -- La 16             0.17        2.35935
         O 4  -- La 16             0.17        2.35935
         O 6  -- La 9              0.17        2.36169
         O 1  -- La 11             0.17        2.36169
         O 5  -- La 8              0.17        2.36185
         O 2  -- La 13             0.17        2.36185
         O 7  -- La 11             0.16        2.36241
         O 4  -- La 9              0.16        2.36241
         O 8  -- La 13             0.16        2.36249
         O 3  -- La 8              0.16        2.36249
         O 46 -- La 15             0.13        2.65881
         O 49 -- La 12             0.13        2.65881
         O 36 -- La 15             0.13        2.65897
         O 41 -- La 12             0.13        2.65897
         O 49 -- La 1              0.13        2.66176
         O 46 -- La 1              0.13        2.66176
         O 36 -- La 2              0.13        2.66183
         O 41 -- La 2              0.13        2.66183
         O 21 -- La 8              0.24        2.66399
         O 10 -- La 13             0.24        2.66399
         O 22 -- La 9              0.24        2.66410
         O 9  -- La 11             0.24        2.66410
         O 47 -- La 11             0.19        2.66481
         O 53 -- La 9              0.19        2.66481
         O 44 -- La 13             0.19        2.66487
         O 37 -- La 8              0.19        2.66487
         O 43 -- La 14             0.18        2.66519
         O 38 -- La 10             0.18        2.66519
         O 54 -- La 7              0.18        2.66520
         O 48 -- La 6              0.18        2.66520
         O 30 -- La 11             0.24        2.66592
         O 19 -- La 9              0.24        2.66592
         O 31 -- La 13             0.24        2.66595
         O 18 -- La 8              0.24        2.66595
         O 15 -- La 13             0.23        2.66773
         O 25 -- La 8              0.23        2.66773
         O 27 -- La 9              0.23        2.66779
         O 13 -- La 11             0.23        2.66779
         O 35 -- La 16             0.19        2.66833
         O 42 -- La 16             0.19        2.66833
         O 50 -- La 5              0.19        2.66839
         O 45 -- La 5              0.19        2.66839
         O 11 -- La 8              0.22        2.66873
         O 24 -- La 13             0.22        2.66873
         O 12 -- La 9              0.22        2.66880
         O 23 -- La 11             0.22        2.66880
         O 34 -- La 11             0.17        2.66987
         O 40 -- La 9              0.17        2.66987
         O 33 -- La 13             0.17        2.66988
         O 39 -- La 8              0.17        2.66988
         O 51 -- La 14             0.18        2.67098
         O 55 -- La 10             0.18        2.67098
         O 52 -- La 6              0.18        2.67107
         O 56 -- La 7              0.18        2.67107
         O 21 -- La 6              0.24        2.67313
         O 10 -- La 7              0.24        2.67313
         O 22 -- La 14             0.24        2.67331
         O 9  -- La 10             0.24        2.67331
         O 20 -- La 7              0.19        2.67411
         O 29 -- La 6              0.19        2.67411
         O 32 -- La 14             0.19        2.67413
         O 17 -- La 10             0.19        2.67413
         O 11 -- La 14             0.23        2.67420
         O 24 -- La 10             0.23        2.67420
         O 12 -- La 6              0.23        2.67429
         O 23 -- La 7              0.23        2.67429
         O 14 -- La 16             0.19        2.67565
         O 28 -- La 16             0.19        2.67565
         O 26 -- La 5              0.19        2.67566
         O 16 -- La 5              0.19        2.67566
         O 38 -- La 4              0.19        2.67802
         O 43 -- La 3              0.19        2.67802
         O 48 -- La 4              0.19        2.67803
         O 54 -- La 3              0.19        2.67803
         O 17 -- La 15             0.17        2.67857
         O 32 -- La 12             0.17        2.67857
         O 29 -- La 15             0.17        2.67858
         O 20 -- La 12             0.17        2.67858
         O 31 -- La 5              0.23        2.67882
         O 18 -- La 5              0.23        2.67882
         O 30 -- La 16             0.23        2.67886
         O 19 -- La 16             0.23        2.67886
         O 35 -- La 3              0.19        2.67955
         O 42 -- La 4              0.19        2.67955
         O 50 -- La 4              0.19        2.67963
         O 45 -- La 3              0.19        2.67963
         O 15 -- La 12             0.24        2.67973
         O 25 -- La 15             0.24        2.67973
         O 27 -- La 12             0.24        2.67984
         O 13 -- La 15             0.24        2.67984
         O 55 -- La 1              0.18        2.67987
         O 51 -- La 1              0.18        2.67987
         O 52 -- La 2              0.18        2.67990
         O 56 -- La 2              0.18        2.67990
         O 28 -- La 7              0.17        2.68623
         O 14 -- La 6              0.17        2.68623
         O 26 -- La 10             0.17        2.68627
         O 16 -- La 14             0.17        2.68627
         O 33 -- La 4              0.19        2.69036
         O 39 -- La 3              0.19        2.69036
         O 34 -- La 3              0.19        2.69041
         O 40 -- La 4              0.19        2.69041
         O 37 -- La 2              0.18        2.69046
         O 44 -- La 2              0.18        2.69046
         O 53 -- La 1              0.18        2.69052
         O 47 -- La 1              0.18        2.69052
         O 11 -- O 37             -0.06        2.79477
         O 24 -- O 44             -0.06        2.79477
         O 23 -- O 47             -0.06        2.79477
         O 12 -- O 53             -0.06        2.79477
         O 17 -- O 24             -0.06        2.79825
         O 11 -- O 32             -0.06        2.79825
         O 20 -- O 23             -0.06        2.79829
         O 12 -- O 29             -0.06        2.79829
         O 13 -- O 30             -0.05        2.79914
         O 19 -- O 27             -0.05        2.79914
         O 15 -- O 31             -0.05        2.79917
         O 18 -- O 25             -0.05        2.79917
         O 19 -- O 22             -0.05        2.80009
         O 9  -- O 30             -0.05        2.80009
         O 18 -- O 21             -0.05        2.80013
         O 10 -- O 31             -0.05        2.80013
         O 15 -- O 33             -0.06        2.80022
         O 25 -- O 39             -0.06        2.80022
         O 27 -- O 40             -0.06        2.80025
         O 13 -- O 34             -0.06        2.80025
         O 30 -- O 42             -0.06        2.80230
         O 19 -- O 35             -0.06        2.80230
         O 31 -- O 45             -0.06        2.80230
         O 18 -- O 50             -0.06        2.80230
         O 21 -- O 48             -0.06        2.80256
         O 10 -- O 54             -0.06        2.80256
         O 22 -- O 43             -0.06        2.80263
         O 9  -- O 38             -0.06        2.80263
         O 42 -- O 50             -0.06        2.80319
         O 35 -- O 45             -0.06        2.80319
         O 14 -- O 52             -0.06        2.80357
         O 28 -- O 56             -0.06        2.80357
         O 16 -- O 51             -0.06        2.80360
         O 26 -- O 55             -0.06        2.80360
         O 10 -- O 24             -0.05        2.80363
         O 11 -- O 21             -0.05        2.80363
         O 9  -- O 23             -0.05        2.80368
         O 12 -- O 22             -0.05        2.80368
         O 37 -- O 56             -0.06        2.80496
         O 44 -- O 52             -0.06        2.80496
         O 47 -- O 51             -0.06        2.80503
         O 53 -- O 55             -0.06        2.80503
         O 13 -- O 25             -0.05        2.80534
         O 15 -- O 27             -0.05        2.80534
         O 15 -- O 32             -0.06        2.80679
         O 17 -- O 25             -0.06        2.80679
         O 13 -- O 29             -0.06        2.80686
         O 20 -- O 27             -0.06        2.80686
         O 39 -- O 54             -0.06        2.80696
         O 33 -- O 48             -0.06        2.80696
         O 38 -- O 40             -0.06        2.80698
         O 34 -- O 43             -0.06        2.80698
         O 14 -- O 30             -0.06        2.80700
         O 19 -- O 28             -0.06        2.80700
         O 16 -- O 31             -0.06        2.80702
         O 18 -- O 26             -0.06        2.80702
         O 46 -- O 49             -0.03        2.80756
         O 36 -- O 41             -0.03        2.80757
         O 36 -- O 46             -0.03        2.80763
         O 41 -- O 49             -0.03        2.80763
         O 11 -- O 22             -0.05        2.80945
         O 9  -- O 24             -0.05        2.80945
         O 12 -- O 21             -0.05        2.80945
         O 10 -- O 23             -0.05        2.80945
         O 45 -- O 50             -0.03        2.82017
         O 35 -- O 42             -0.03        2.82020
         O 38 -- O 55             -0.03        2.82157
         O 43 -- O 51             -0.03        2.82157
         O 54 -- O 56             -0.03        2.82161
         O 48 -- O 52             -0.03        2.82161
         O 40 -- O 53             -0.03        2.82293
         O 34 -- O 47             -0.03        2.82293
         O 33 -- O 44             -0.03        2.82300
         O 37 -- O 39             -0.03        2.82300
         O 20 -- O 49             -0.03        2.82334
         O 29 -- O 46             -0.03        2.82334
         O 17 -- O 36             -0.03        2.82339
         O 32 -- O 41             -0.03        2.82339
         O 16 -- O 26             -0.03        2.82501
         O 14 -- O 28             -0.03        2.82507
         O 51 -- O 55             -0.03        2.82591
         O 52 -- O 56             -0.03        2.82591
         O 47 -- O 49             -0.03        2.82745
         O 46 -- O 53             -0.03        2.82745
         O 36 -- O 44             -0.03        2.82745
         O 37 -- O 41             -0.03        2.82745
         O 48 -- O 50             -0.03        2.83478
         O 45 -- O 54             -0.03        2.83478
         O 35 -- O 43             -0.03        2.83479
         O 38 -- O 42             -0.03        2.83479
         O 20 -- O 28             -0.03        2.83491
         O 14 -- O 29             -0.03        2.83491
         O 16 -- O 32             -0.03        2.83491
         O 17 -- O 26             -0.03        2.83491
         O 33 -- O 40             -0.03        2.84191
         O 34 -- O 39             -0.03        2.84191
============================================================
 

Writing analysis data to 005.castep_bin

Writing model to 005.check
 
 A BibTeX formatted list of references used in this run has been written to 
 005.bib
 
Initialisation time =     55.31 s
Calculation time    =  33742.88 s
Finalisation time   =    105.67 s
Total time          =  33903.87 s
Peak Memory Use     = 2844636 kB
  
Overall parallel efficiency rating: Good (77%)                                  
  
Data was distributed by:-
G-vector (4-way); efficiency rating: Good (79%)                                 
k-point (14-way); efficiency rating: Excellent (96%)                            
