 +-------------------------------------------------+
 |                                                 |
 |      CCC   AA    SSS  TTTTT  EEEEE  PPPP        |
 |     C     A  A  S       T    E      P   P       |
 |     C     AAAA   SS     T    EEE    PPPP        |
 |     C     A  A     S    T    E      P           |
 |      CCC  A  A  SSS     T    EEEEE  P           |
 |                                                 |
 +-------------------------------------------------+
 |                                                 |
 | Welcome to Academic Release CASTEP version 16.11|          
 | Ab Initio Total Energy Program                  |
 |                                                 |
 | Authors:                                        |
 | M. Segall, M. Probert, C. Pickard, P. Hasnip,   |
 | S. Clark, K. Refson, J. R. Yates, M. Payne      |
 |                                                 |
 | Contributors:                                   |
 | P. Lindan, P. Haynes, J. White, V. Milman,      |
 | N. Govind, M. Gibson, P. Tulip, V. Cocula,      |
 | B. Montanari, D. Quigley, M. Glover,            |
 | L. Bernasconi, A. Perlov, M. Plummer,           |
 | E. McNellis, J. Meyer, J. Gale, D. Jochym       |
 | J. Aarons, B. Walker, R. Gillen, D. Jones       |
 | T. Green, I. J. Bush, C. J. Armstrong,          |
 | E. J. Higgins, E. L. Brown, M. S. McFly         |
 |                                                 |
 | Copyright (c) 2000 - 2015                       |
 |                                                 |
 |     Distributed under the terms of an           |
 |     Agreement between the United Kingdom        |
 |     Car-Parrinello (UKCP) Consortium,           |
 |     Daresbury Laboratory and Accelrys, Inc.     |
 |                                                 |
 | Please cite                                     |
 |                                                 |
 |     "First principles methods using CASTEP"     |
 |                                                 |
 |         Zeitschrift fuer Kristallographie       |
 |           220(5-6) pp. 567-570 (2005)           |
 |                                                 |
 | S. J. Clark, M. D. Segall, C. J. Pickard,       |
 | P. J. Hasnip, M. J. Probert, K. Refson,         |
 | M. C. Payne                                     |
 |                                                 |
 |       in all publications arising from          |
 |              your use of CASTEP                 |
 |                                                 |
 +-------------------------------------------------+
 
 
 Compiled for linux_x86_64_ifort16 on Sat, 23 Jul 2016 23:44:54 +0100
 from code version 
 203e84763863+ Castep161_branch Fri, 04 Mar 2016 19:21:07 +0000
 Compiler: Intel Fortran 16.0.3.210; Optimisation: fast
 MATHLIBS: Intel MKL(11.3.3) (LAPACK version 3.6.0)
 FFT Lib : mkl
 Fundamental constants values: CODATA 2010
 
 Run started: Sun, 08 Apr 2018 03:41:31 +0100
 +-------------------------------------------------+
 |                                                 |
 |           N   N    M   M    RRRR                |
 |           NN  N    MM MM    R   R               |
 |           N N N    M M M    RRRR                |
 |           N  NN    M   M    R  R                |
 |           N   N    M   M    R   R               |
 |                                                 |
 +-------------------------------------------------+
 |                                                 |
 | Welcome to Materials Studio CASTEP-NMR          |
 |                                                 |
 | Authors:                                        |
 | J.R. Yates, C.J. Pickard, F. Mauri              |
 |                                                 |
 | Contributors:                                   |
 | T.F.G. Green, S.A. Joyce                        |
 |                                                 |
 | Copyright (c) 2004 - 2015                       |
 |                                                 |
 | Please cite the appropriate publications in all |
 | work arising from your use of CASTEP NMR.       |
 |                                                 |
 | For NMR Shielding Tensors cite:                 |
 |    "All-electron magnetic response with         |
 |    pseudopotentials: NMR chemical shifts",      |
 |    C. J. Pickard, F. Mauri;                     |
 |    Physical Review B63 245101 (2001), and       |
 |                                                 |
 |    "Calculation of NMR Chemical Shifts          |
 |    for extended systems using                   |
 |    Ultrasoft Pseudopotentials",                 |
 |    J. R. Yates, C. J. Pickard and F. Mauri      |
 |    Physical Review B76 024401 (2007)            |
 |                                                 |
 | For Electric Field Gradients cite:              |
 |   "Accurate First Principles Prediction of 17O  |
 |    NMR Parameters in SiO2: Assignment of the    |
 |    Zeolite Ferrierite Spectrum"                 |
 |    M. Profeta, F. Mauri and C. J. Pickard       |
 |    J. Amer. Chem. Soc. 125 541 (2003)           |
 |                                                 |
 | For Spin-Spin (J) Couplings cite:               |
 |   "A first principles theory of NMR J-coupling  |
 |   in solid-state systems"                       |
 |   S.A. Joyce, J.R. Yates, C.J. Pickard, F. Mauri|
 |   J. Chem. Phys. 127 204107 (2007)              |
 |                                                 |
 |   "Relativistic NMR J-coupling with ultrasoft   |
 |   pseudopotentials and the zeroth-order regular |
 |   approximation"                                |
 |   T.F.G. Green and J.R. Yates                   |
 |   J. Chem. Phys. 140 234106 (2014)              |
 |                                                 |
 +-------------------------------------------------+
 
 
 Atomic calculation performed for O: 1s2 2s2 2p4
 
 Converged in 44 iterations to an ae energy of -2040.855 eV
 
 
 Atomic calculation performed for O: 1s2 2s2 2p4
 
 Exceeded max iterations: converged to 0.000000062 eV
 
   ============================================================                
   | Pseudopotential Report - Date of generation  8-04-2018   |                
   ------------------------------------------------------------                
   | Element: O Ionic charge:  6.00 Level of theory: PBE      |                
   | Atomic Solver: ZORA (scalar)                             |                
   |                                                          |                
   |               Reference Electronic Structure             |                
   |         Orbital         Occupation         Energy        |                
   |            2s              2.000           -0.881        |                
   |            2p              4.000           -0.332        |                
   |                                                          |                
   |                 Pseudopotential Definition               |                
   |        Beta     l      e      Rc     scheme   norm       |                
   |          1      0   -0.881   1.100     qc      0         |                
   |          2      0    0.250   1.100     qc      0         |                
   |          3      1   -0.332   1.100     qc      0         |                
   |          4      1    0.250   1.100     qc      0         |                
   |         loc     2    0.000   1.100     pn      0         |                
   |                                                          |                
   | Augmentation charge Rinner = 0.769                       |                
   | Partial core correction Rc = 0.769                       |                
   ------------------------------------------------------------                
   | "2|1.1|15|18|20|20:21(qc=7)"                             |                
   ------------------------------------------------------------                
   |      Author: Chris J. Pickard, Cambridge University      |                
   ============================================================                
 
 Atomic calculation performed for Zr: 1s2 2s2 2p6 3s2 3p6 3d10 4s2 4p6 4d2 5s2
 
 Converged in 53 iterations to an ae energy of -97719.888 eV
 
 
 Atomic calculation performed for Zr: 1s2 2s2 2p6 3s2 3p6 3d10 4s2 4p6 4d2 5s2
 
 Exceeded max iterations: converged to 0.000000970 eV
 
 Warning: ion_atom_descreen_psp: negative charge density encountered
   ============================================================                
   | Pseudopotential Report - Date of generation  8-04-2018   |                
   ------------------------------------------------------------                
   | Element: Zr Ionic charge: 12.00 Level of theory: PBE     |                
   | Atomic Solver: ZORA (scalar)                             |                
   |                                                          |                
   |               Reference Electronic Structure             |                
   |         Orbital         Occupation         Energy        |                
   |            4s              2.000           -2.003        |                
   |            4p              6.000           -1.193        |                
   |            5s              2.000           -0.163        |                
   |            4d              2.000           -0.132        |                
   |                                                          |                
   |                 Pseudopotential Definition               |                
   |        Beta     l      e      Rc     scheme   norm       |                
   |          1      0   -2.003   2.105     qc      0         |                
   |          2      0   -0.163   2.105     qc      0         |                
   |          3      0    0.250   2.105     qc      0         |                
   |          4      1   -1.193   2.105     qc      0         |                
   |          5      1    0.250   2.105     qc      0         |                
   |          6      2   -0.132   2.105     qc      0         |                
   |          7      2    0.250   2.105     qc      0         |                
   |         loc     3    0.000   2.105     pn      0         |                
   |                                                          |                
   | Augmentation charge Rinner = 1.471                       |                
   | Partial core correction Rc = 1.471                       |                
   ------------------------------------------------------------                
   | "3|2.1|7|8|9|40U:50:41:42"                               |                
   ------------------------------------------------------------                
   |      Author: Chris J. Pickard, Cambridge University      |                
   ============================================================                
 
 Atomic calculation performed for Sn:
 1s2 2s2 2p6 3s2 3p6 3d10 4s2 4p6 4d10 5s2 5p2
 
 Converged in 58 iterations to an ae energy of -167539.320 eV
 
 
 Atomic calculation performed for Sn:
 1s2 2s2 2p6 3s2 3p6 3d10 4s2 4p6 4d10 5s2 5p2
 
 Exceeded max iterations: converged to 0.000001154 eV
 
   ============================================================                
   | Pseudopotential Report - Date of generation  8-04-2018   |                
   ------------------------------------------------------------                
   | Element: Sn Ionic charge: 14.00 Level of theory: PBE     |                
   | Atomic Solver: ZORA (scalar)                             |                
   |                                                          |                
   |               Reference Electronic Structure             |                
   |         Orbital         Occupation         Energy        |                
   |            4d             10.000           -0.950        |                
   |            5s              2.000           -0.388        |                
   |            5p              2.000           -0.136        |                
   |                                                          |                
   |                 Pseudopotential Definition               |                
   |        Beta     l      e      Rc     scheme   norm       |                
   |          1      0   -0.388   2.199     qc      0         |                
   |          2      0    0.250   2.199     qc      0         |                
   |          3      1   -0.136   2.199     qc      0         |                
   |          4      1    0.250   2.199     qc      0         |                
   |          5      2   -0.950   2.199     qc      0         |                
   |          6      2    0.250   2.199     qc      0         |                
   |         loc     3    0.000   2.199     pn      0         |                
   |                                                          |                
   | Augmentation charge Rinner = 1.537                       |                
   | Partial core correction Rc = 1.537                       |                
   ------------------------------------------------------------                
   | "3|2.2|7|8|9|50:51:42"                                   |                
   ------------------------------------------------------------                
   |      Author: Chris J. Pickard, Cambridge University      |                
   ============================================================                
 
 Atomic calculation performed for La:
 1s2 2s2 2p6 3s2 3p6 3d10 4s2 4p6 4d10 5s2 5p6 5d1 6s2
 
 Converged in 56 iterations to an ae energy of -230121.495 eV
 
 
 Atomic calculation performed for La:
 1s2 2s2 2p6 3s2 3p6 3d10 4s2 4p6 4d10 5s2 5p6 5d1 6s2
 
 Exceeded max iterations: converged to 0.000000907 eV
 
 Warning: ion_atom_descreen_psp: negative charge density encountered
   ============================================================                
   | Pseudopotential Report - Date of generation  8-04-2018   |                
   ------------------------------------------------------------                
   | Element: La Ionic charge: 11.00 Level of theory: PBE     |                
   | Atomic Solver: ZORA (scalar)                             |                
   |                                                          |                
   |               Reference Electronic Structure             |                
   |         Orbital         Occupation         Energy        |                
   |            5s              2.000           -1.430        |                
   |            5p              6.000           -0.823        |                
   |            6s              2.000           -0.135        |                
   |            5d              1.000           -0.114        |                
   |                                                          |                
   |                 Pseudopotential Definition               |                
   |        Beta     l      e      Rc     scheme   norm       |                
   |          1      0   -1.430   2.298     qc      0         |                
   |          2      0   -0.135   2.298     qc      0         |                
   |          3      0    0.250   2.298     qc      0         |                
   |          4      1   -0.823   2.298     qc      0         |                
   |          5      1    0.250   2.298     qc      0         |                
   |          6      2   -0.114   2.298     qc      0         |                
   |          7      2    0.250   2.298     qc      0         |                
   |         loc     2    0.000   2.298     pn      0         |                
   |                                                          |                
   | Augmentation charge Rinner = 1.606                       |                
   | Partial core correction Rc = 1.606                       |                
   ------------------------------------------------------------                
   | "2|2.3|5|6|7|50U:60:51:52(qc=4.5)"                       |                
   ------------------------------------------------------------                
   |      Author: Chris J. Pickard, Cambridge University      |                
   ============================================================                
 
 Pseudo atomic calculation performed for O 2s2 2p4
 
 Converged in 39 iterations to a total energy of -432.6554 eV
 
 
 Pseudo atomic calculation performed for Zr 4s2 4p6 4d2 5s2
 
 Converged in 38 iterations to a total energy of -1285.4931 eV
 
 
 Pseudo atomic calculation performed for Sn 4d10 5s2 5p2
 
 Converged in 48 iterations to a total energy of -2044.5414 eV
 
 
 Pseudo atomic calculation performed for La 5s2 5p6 5d1 6s2
 
 Converged in 34 iterations to a total energy of -968.0372 eV
 
 Calculation parallelised over 56 processes.
 Data is distributed by G-vector(4-way) and k-point(14-way)

 ************************************ Title ************************************
 nmr testing

 ***************************** General Parameters ******************************
  
 output verbosity                               : normal  (1)
 write checkpoint data to                       : 029.check
 type of calculation                            : Magnetic Resonance
 stress calculation                             : on
 density difference calculation                 : off
 electron localisation func (ELF) calculation   : off
 Hirshfeld analysis                             : off
 unlimited duration calculation
 timing information                             : on
 memory usage estimate                          : on
 write final potential to formatted file        : off
 write final density to formatted file          : off
 write structure in CIF formatted file          : on
 write structure in CELL formatted file         : on
 write BibTeX reference list                    : on
 write OTFG pseudopotential files               : on
 checkpoint writing                             : both castep_bin and check files
  
 output         length unit                     : A
 output           mass unit                     : amu
 output           time unit                     : ps
 output         charge unit                     : e
 output           spin unit                     : hbar/2
 output         energy unit                     : eV
 output          force unit                     : eV/A
 output       velocity unit                     : A/ps
 output       pressure unit                     : GPa
 output     inv_length unit                     : 1/A
 output      frequency unit                     : cm-1
 output force constant unit                     : eV/A**2
 output         volume unit                     : A**3
 output   IR intensity unit                     : (D/A)**2/amu
 output         dipole unit                     : D
 output         efield unit                     : eV/A/e
 output        entropy unit                     : J/mol/K
  
 wavefunctions paging                           : none
 random number generator seed                   : randomised (34133256)
 data distribution                              : optimal for this architecture
 optimization strategy                          : maximize speed(+++)

 *********************** Exchange-Correlation Parameters ***********************
  
 using functional                               : Perdew Burke Ernzerhof
 relativistic treatment                         : ZORA
 DFT+D: Semi-empirical dispersion correction    : off

 ************************* Pseudopotential Parameters **************************
  
 pseudopotential representation                 : reciprocal space
 <beta|phi> representation                      : reciprocal space
 spin-orbit coupling                            : off

 **************************** Basis Set Parameters *****************************
  
 plane wave basis set cut-off                   :   816.3416   eV
 size of standard grid                          :     1.7500
 size of   fine   gmax                          :    25.6161   1/A
 finite basis set correction                    : automatic
 number of sample energies                      :          3
           sample  spacing                      :     5.0000   eV

 **************************** Electronic Parameters ****************************
  
 number of  electrons                           :  724.0    
 net charge of system                           :  0.000    
 treating system as non-spin-polarized
 number of bands                                :        434

 ********************* Electronic Minimization Parameters **********************
  
 Method: Treating system as metallic with density mixing treatment of electrons,
         and number of  SD  steps               :          1
         and number of  CG  steps               :          4
  
 total energy / atom convergence tol.           : 0.1000E-08   eV
 eigen-energy convergence tolerance             : 0.2431E-09   eV
 max force / atom convergence tol.              : ignored
 convergence tolerance window                   :          3   cycles
 max. number of SCF cycles                      :         50
 number of fixed-spin iterations                :         10
 smearing scheme                                : Gaussian
 smearing width                                 : 0.2000       eV
 Fermi energy convergence tolerance             : 0.2721E-13   eV
 periodic dipole correction                     : NONE

 ************************** Density Mixing Parameters **************************
  
 density-mixing scheme                          : Broyden
 max. length of mixing history                  :         20
 charge density mixing amplitude                : 0.8000    
 cut-off energy for mixing                      :  816.3       eV

 *********************** Population Analysis Parameters ************************
  
 Population analysis with cutoff                :  3.000       A

 ************************ Magnetic Resonance Parameters ************************
  
 Magnetic Resonance Property                    : Chemical Shielding + EFG
 Position Operator Method                       : crystal
 max. number of MagRes CG steps                 :        250
 convergence tolerance window                   :          2   cycles
 energy convergence tolerance                   : 0.1000E-11   eV
 band convergence tolerance                     : 0.1000E-08   eV

 *******************************************************************************
  
 
                           -------------------------------
                                      Unit Cell
                           -------------------------------
        Real Lattice(A)                      Reciprocal Lattice(1/A)
  10.8962477   0.0014829   0.0003013        0.5766375  -0.0000785  -0.0000160
   0.0014826  10.8950434  -0.0058210       -0.0000785   0.5767014   0.0003082
   0.0003016  -0.0058209  10.8933838       -0.0000160   0.0003082   0.5767893
 
                       Lattice parameters(A)       Cell Angles
                    a =   10.896248          alpha =   90.061228
                    b =   10.895045          beta  =   89.996833
                    c =   10.893385          gamma =   89.984406
 
                       Current cell volume = 1293.208667       A**3
 
                           -------------------------------
                                     Cell Contents
                           -------------------------------
                         Total number of ions in cell =   88
                      Total number of species in cell =    4
                        Max number of any one species =   56
 
            xxxxxxxxxxxxxxxxxxxxxxxxxxxxxxxxxxxxxxxxxxxxxxxxxxxxxxxxxxxx
            x  Element    Atom        Fractional coordinates of atoms  x
            x            Number           u          v          w      x
            x----------------------------------------------------------x
            x  O            1         0.124715   0.124631   0.124910   x 
            x  O            2         0.625162   0.124848   0.625026   x 
            x  O            3         0.124980   0.624994   0.625298   x 
            x  O            4         0.624923   0.624974   0.125007   x 
            x  O            5         0.874421   0.374768   0.375101   x 
            x  O            6         0.874679   0.874835   0.875251   x 
            x  O            7         0.375339   0.375315   0.874787   x 
            x  O            8         0.375274   0.874595   0.375072   x 
            x  O            9         0.419365   0.125662   0.124798   x 
            x  O           10         0.330792   0.125204   0.624719   x 
            x  O           11         0.828988   0.625877   0.624253   x 
            x  O           12         0.919796   0.624811   0.125488   x 
            x  O           13         0.125423   0.419449   0.124981   x 
            x  O           14         0.624018   0.329263   0.125563   x 
            x  O           15         0.626520   0.828776   0.624692   x 
            x  O           16         0.125032   0.919513   0.624745   x 
            x  O           17         0.125386   0.124740   0.419288   x 
            x  O           18         0.124754   0.624668   0.330865   x 
            x  O           19         0.626080   0.626074   0.830313   x 
            x  O           20         0.624216   0.124789   0.920552   x 
            x  O           21         0.875419   0.669527   0.374555   x 
            x  O           22         0.875907   0.579131   0.876002   x 
            x  O           23         0.374294   0.080980   0.874881   x 
            x  O           24         0.374249   0.169330   0.374964   x 
            x  O           25         0.168931   0.374924   0.375225   x 
            x  O           26         0.080536   0.874768   0.375469   x 
            x  O           27         0.578856   0.876395   0.875197   x 
            x  O           28         0.669685   0.375211   0.875087   x 
            x  O           29         0.875209   0.376340   0.079225   x 
            x  O           30         0.374058   0.374662   0.169645   x 
            x  O           31         0.374620   0.876524   0.671038   x 
            x  O           32         0.875648   0.875561   0.580575   x 
            x  O           33         0.670478   0.874672   0.375212   x 
            x  O           34         0.080680   0.374488   0.875222   x 
            x  O           35         0.375176   0.669591   0.875264   x 
            x  O           36         0.875455   0.079454   0.376074   x 
            x  O           37         0.876375   0.374403   0.671098   x 
            x  O           38         0.375170   0.875999   0.079103   x 
            x  O           39         0.125270   0.330535   0.624919   x 
            x  O           40         0.624423   0.920777   0.124286   x 
            x  O           41         0.919711   0.124633   0.625053   x 
            x  O           42         0.329734   0.624303   0.125577   x 
            x  O           43         0.124738   0.624276   0.920298   x 
            x  O           44         0.623661   0.125303   0.329287   x 
            x  O           45         0.420161   0.625429   0.624510   x 
            x  O           46         0.829957   0.125018   0.124827   x 
            x  O           47         0.125520   0.125494   0.830453   x 
            x  O           48         0.626362   0.625281   0.420792   x 
            x  O           49         0.875325   0.170627   0.873543   x 
            x  O           50         0.374330   0.579411   0.374157   x 
            x  O           51         0.170670   0.875614   0.873943   x 
            x  O           52         0.579228   0.374811   0.373920   x 
            x  O           53         0.874826   0.873545   0.170337   x 
            x  O           54         0.374167   0.374114   0.579370   x 
            x  O           55         0.124789   0.829060   0.126013   x 
            x  O           56         0.625402   0.419977   0.624553   x 
            x  Zr           1         0.499812   0.499718   0.499653   x 
            x  Zr           2         0.250156   0.749445  -0.000048   x 
            x  Zr           3         0.750108   0.999841   0.249933   x 
            x  Zr           4         0.749655   0.250684   0.999730   x 
            x  Zr           5         0.750788   0.499951   0.750610   x 
            x  Zr           6         0.500075   0.750930   0.750460   x 
            x  Sn           1         0.001273   0.249022   0.749053   x 
            x  Sn           2         0.249141   0.001379   0.748855   x 
            x  Sn           3         0.000032   0.749701   0.250207   x 
            x  Sn           4         0.499567   0.000670   0.999822   x 
            x  Sn           5         0.249518   0.249554   0.500323   x 
            x  Sn           6         0.751669   0.751260   0.498769   x 
            x  Sn           7         0.249732   0.499840   0.250119   x 
            x  Sn           8         0.000774   0.500372   0.000691   x 
            x  Sn           9         0.498776   0.250558   0.250385   x 
            x  Sn          10         0.000673   0.000398   0.500556   x 
            x  La           1         0.999408   0.999836   0.000455   x 
            x  La           2         0.749522   0.250244   0.500139   x 
            x  La           3         0.250615   0.500561   0.750091   x 
            x  La           4         0.500072   0.749964   0.249899   x 
            x  La           5         0.250650   0.749437   0.500329   x 
            x  La           6         0.749508   0.499600   0.249993   x 
            x  La           7         0.500584   0.250640   0.749880   x 
            x  La           8         0.999881   0.499689   0.500304   x 
            x  La           9         0.749687   0.749854   0.999921   x 
            x  La          10         0.249808   0.999328   0.249720   x 
            x  La          11         0.249944   0.250065   0.999871   x 
            x  La          12         0.749841  -0.000013   0.750274   x 
            x  La          13         0.500294   0.999865   0.499809   x 
            x  La          14         0.000178   0.749855   0.750510   x 
            x  La          15         0.999214   0.249416   0.249836   x 
            x  La          16         0.500161   0.500382   0.999468   x 
            xxxxxxxxxxxxxxxxxxxxxxxxxxxxxxxxxxxxxxxxxxxxxxxxxxxxxxxxxxxx
 
 
                         No user defined ionic velocities
 
                           -------------------------------
                                   Details of Species
                           -------------------------------
 
                               Mass of species in AMU
                                    O   15.9994000
                                    Zr   91.2240000
                                    Sn  118.7100000
                                    La  138.9055000
 
                          Electric Quadrupole Moment (Barn)
                                    O   -0.0255800 Isotope 17
                                    Zr   -0.1760000 Isotope 91
                                    Sn    1.0000000 No Isotope Defined
                                    La    0.2000000 Isotope139
 
                          Files used for pseudopotentials:
                                    O 2|1.1|15|18|20|20:21(qc=7)
                                    Zr 3|2.1|7|8|9|40U:50:41:42
                                    Sn 3|2.2|7|8|9|50:51:42
                                    La 2|2.3|5|6|7|50U:60:51:52(qc=4.5)
 
                           -------------------------------
                              k-Points For BZ Sampling
                           -------------------------------
                       MP grid size for SCF calculation is  3  3  3
                            with an offset of   0.000  0.000  0.000
                       Number of kpoints used =            14
 
                           -------------------------------
                               Symmetry and Constraints
                           -------------------------------
 
                      Maximum deviation from symmetry =  0.00000         ANG
 
         There are no symmetry operations specified or generated for this cell
                      Number of ionic constraints     =           3
                      Point group of crystal =     1: C1, 1, 1
                      Space group of crystal =     1: P1, P 1
 
 
                         Centre of mass is constrained
             Set iprint > 1 for details of linear ionic constraints
 
                         Number of cell constraints= 0
                         Cell constraints are:  1 2 3 4 5 6
 
                         External pressure/stress (GPa)
                          0.00000   0.00000   0.00000
                                    0.00000   0.00000
                                              0.00000
  
+---------------- MEMORY AND SCRATCH DISK ESTIMATES PER PROCESS --------------+
|                                                     Memory          Disk    |
| Baseline code, static data and system overhead      322.0 MB         0.0 MB |
| BLAS internal memory storage                          0.0 MB         0.0 MB |
| Model and support data                             1318.3 MB         0.0 MB |
| Electronic energy minimisation requirements         382.6 MB         0.0 MB |
| Force calculation requirements                       24.1 MB         0.0 MB |
| Stress calculation requirements                      28.3 MB         0.0 MB |
|                                               ----------------------------- |
| Approx. total storage required per process         2023.0 MB         0.0 MB |
|                                                                             |
| Requirements will fluctuate during execution and may exceed these estimates |
+-----------------------------------------------------------------------------+
Calculating finite basis set correction with  3 cut-off energies.
Calculating total energy with cut-off of  806.342eV.
------------------------------------------------------------------------ <-- SCF
SCF loop      Energy           Fermi           Energy gain       Timer   <-- SCF
                               energy          per atom          (sec)   <-- SCF
------------------------------------------------------------------------ <-- SCF
Initial  -5.81393744E+004  0.00000000E+000                        75.96  <-- SCF
      1  -6.60359080E+004  7.41083497E+000   8.97333362E+001     215.65  <-- SCF
      2  -6.85836454E+004  6.43911378E+000   2.89515608E+001     308.70  <-- SCF
      3  -6.86687718E+004  6.17657009E+000   9.67345878E-001     411.85  <-- SCF
      4  -6.86603921E+004  7.52766722E+000  -9.52242169E-002     542.52  <-- SCF
      5  -6.85622980E+004  6.74091751E+000  -1.11470552E+000     669.94  <-- SCF
      6  -6.85634845E+004  6.62493702E+000   1.34831023E-002     833.28  <-- SCF
      7  -6.85631165E+004  6.70737974E+000  -4.18215101E-003     970.85  <-- SCF
      8  -6.85632177E+004  6.71125863E+000   1.15006118E-003    1155.82  <-- SCF
      9  -6.85632410E+004  6.71280825E+000   2.65015130E-004    1304.72  <-- SCF
     10  -6.85632401E+004  6.71135047E+000  -9.63782639E-006    1446.66  <-- SCF
     11  -6.85632401E+004  6.71280851E+000  -8.31184899E-008    1589.70  <-- SCF
     12  -6.85632404E+004  6.71301506E+000   2.87530623E-006    1738.39  <-- SCF
     13  -6.85632404E+004  6.71278981E+000   8.65748583E-008    1871.67  <-- SCF
     14  -6.85632404E+004  6.71265907E+000  -3.10585220E-007    2008.46  <-- SCF
     15  -6.85632404E+004  6.71237853E+000  -8.33275875E-008    2153.60  <-- SCF
     16  -6.85632404E+004  6.71223710E+000  -5.98227352E-009    2280.26  <-- SCF
     17  -6.85632404E+004  6.71218177E+000  -4.64528608E-009    2400.13  <-- SCF
     18  -6.85632404E+004  6.71212704E+000   2.89671237E-010    2501.12  <-- SCF
     19  -6.85632404E+004  6.71209959E+000   3.86275189E-010    2591.20  <-- SCF
------------------------------------------------------------------------ <-- SCF
 
Final energy, E             =  -68563.24035274     eV
Final free energy (E-TS)    =  -68563.24035274     eV
(energies not corrected for finite basis set)
 
NB est. 0K energy (E-0.5TS)      =  -68563.24035274     eV
 
Calculating total energy with cut-off of  811.342eV.
------------------------------------------------------------------------ <-- SCF
SCF loop      Energy           Fermi           Energy gain       Timer   <-- SCF
                               energy          per atom          (sec)   <-- SCF
------------------------------------------------------------------------ <-- SCF
Initial  -6.85632404E+004  0.00000000E+000                      2626.87  <-- SCF
      1  -6.85632429E+004  6.71209735E+000   2.84269943E-005    2737.43  <-- SCF
      2  -6.85632429E+004  6.71209735E+000   2.05160357E-010    2825.36  <-- SCF
      3  -6.85632429E+004  6.71209107E+000   1.65950683E-008    2913.13  <-- SCF
      4  -6.85632429E+004  6.71209873E+000   4.81051118E-010    3002.27  <-- SCF
      5  -6.85632429E+004  6.71209733E+000  -1.73521508E-010    3089.41  <-- SCF
------------------------------------------------------------------------ <-- SCF
 
Final energy, E             =  -68563.24285581     eV
Final free energy (E-TS)    =  -68563.24285581     eV
(energies not corrected for finite basis set)
 
NB est. 0K energy (E-0.5TS)      =  -68563.24285581     eV
 
Calculating total energy with cut-off of  816.342eV.
------------------------------------------------------------------------ <-- SCF
SCF loop      Energy           Fermi           Energy gain       Timer   <-- SCF
                               energy          per atom          (sec)   <-- SCF
------------------------------------------------------------------------ <-- SCF
Initial  -6.85632429E+004  0.00000000E+000                      3125.19  <-- SCF
      1  -6.85632458E+004  6.71209711E+000   3.39261243E-005    3235.99  <-- SCF
      2  -6.85632458E+004  6.71209711E+000   2.12613064E-010    3323.48  <-- SCF
      3  -6.85632458E+004  6.71209338E+000   2.09131384E-008    3410.71  <-- SCF
      4  -6.85632458E+004  6.71209626E+000   6.86773943E-010    3498.23  <-- SCF
      5  -6.85632458E+004  6.71209492E+000  -1.41320191E-010    3585.63  <-- SCF
------------------------------------------------------------------------ <-- SCF
 
Final energy, E             =  -68563.24584321     eV
Final free energy (E-TS)    =  -68563.24584321     eV
(energies not corrected for finite basis set)
 
NB est. 0K energy (E-0.5TS)      =  -68563.24584321     eV
 
 For future reference: finite basis dEtot/dlog(Ecut) =      -0.441316eV
 Total energy corrected for finite basis set =  -68563.245840 eV
 
  =====================================================================
  +       Calculation of Nuclear Magnetic Resonance Parameters        +
  + ================================================================= +
 
  Starting Calculation of Electric Field Gradient Tensors         |<-- EFG
  +---------------- MEMORY AND SCRATCH DISK ESTIMATES PER PROCESS --------------+
  |                                                     Memory          Disk    |
  | Model and support data                             1316.1 MB         0.0 MB |
  | NMR EFG calculation requirements                    368.4 MB         0.0 MB |
  |                                               ----------------------------- |
  | Approx. total storage required per process         1684.4 MB         0.0 MB |
  |                                                                             |
  | Requirements will fluctuate during execution and may exceed these estimates |
  +-----------------------------------------------------------------------------+
  Total Time for EFG Tensors                     371.22 sec       |<-- EFG
 
  Starting Calculation of Chemical Shielding Tensors              |<-- NMR
  +---------------- MEMORY AND SCRATCH DISK ESTIMATES PER PROCESS --------------+
  |                                                     Memory          Disk    |
  | Model and support data                             1316.1 MB         0.0 MB |
  | NMR chemical shift calculation requirements         565.7 MB         0.0 MB |
  |                                               ----------------------------- |
  | Approx. total storage required per process         1881.8 MB         0.0 MB |
  |                                                                             |
  | Requirements will fluctuate during execution and may exceed these estimates |
  +-----------------------------------------------------------------------------+
  Starting k-point:   1 of   1                                    |<-- NMR
  Total Time for step 1 of 6:                   3301.87 sec       |<-- NMR
  Total Time for step 2 of 6:                   3292.06 sec       |<-- NMR
  Total Time for step 3 of 6:                   3311.12 sec       |<-- NMR
  Total Time for step 4 of 6:                   3279.62 sec       |<-- NMR
  Total Time for step 5 of 6:                   3286.24 sec       |<-- NMR
  Total Time for step 6 of 6:                   3268.76 sec       |<-- NMR
  Total Time for Chemical Shielding Tensors    29485.18 sec       |<-- NMR
 
  ========================================================================
  |           Chemical Shielding and Electric Field Gradient Tensors     |
  |----------------------------------------------------------------------|
  |     Nucleus                Shielding tensor             EFG Tensor   |
  |  Species       Ion    Iso(ppm)   Aniso(ppm)  Asym    Cq(MHz)    Eta  |
  |    O           1     -318.56     -20.26      0.63  -2.566E-02   0.71 |
  |    O           2     -317.71       6.65      0.92  -3.953E-02   0.64 |
  |    O           3     -318.50       7.18      0.49  -4.574E-02   0.22 |
  |    O           4     -317.80      10.36      0.04   2.403E-02   0.68 |
  |    O           5     -319.78       6.80      0.82  -7.063E-02   0.60 |
  |    O           6     -318.98       8.99      0.66   5.620E-02   0.50 |
  |    O           7     -319.93     -13.68      0.35  -4.959E-02   0.31 |
  |    O           8     -318.58      11.57      0.52  -5.034E-02   0.74 |
  |    O           9        4.96      68.24      0.95   3.829E+00   0.94 |
  |    O          10      -18.24     -38.67      0.83   3.874E+00   0.87 |
  |    O          11      -80.96      85.56      0.23  -3.120E+00   0.05 |
  |    O          12      -13.66      58.85      0.45   3.904E+00   0.85 |
  |    O          13       -4.54      57.45      0.93   3.854E+00   0.92 |
  |    O          14      -89.39      90.52      0.28  -3.171E+00   0.10 |
  |    O          15      -83.73      86.16      0.25  -3.093E+00   0.08 |
  |    O          16      -18.86      37.01      0.91   3.879E+00   0.87 |
  |    O          17      -17.66     -42.19      0.60   3.844E+00   0.92 |
  |    O          18       -9.58      58.80      0.83   3.820E+00   0.92 |
  |    O          19     -160.23     151.00      0.82   1.009E+00   0.82 |
  |    O          20      -84.75      86.21      0.29  -3.233E+00   0.10 |
  |    O          21       -7.71      58.61      0.55   3.885E+00   0.87 |
  |    O          22      -87.00      91.51      0.16  -3.166E+00   0.09 |
  |    O          23       -0.37      67.02      0.99   3.790E+00   0.94 |
  |    O          24       -9.40      58.09      0.80   3.831E+00   0.91 |
  |    O          25      -10.81     -57.31      0.94   3.766E+00   0.95 |
  |    O          26      -10.75      58.21      0.80   3.825E+00   0.93 |
  |    O          27      -89.30     101.49      0.22  -3.176E+00   0.09 |
  |    O          28     -163.18     153.80      0.83   1.053E+00   0.77 |
  |    O          29      -84.76      89.01      0.22  -3.225E+00   0.06 |
  |    O          30       -8.57      59.97      0.69   3.877E+00   0.89 |
  |    O          31      -85.26      89.91      0.10  -3.187E+00   0.07 |
  |    O          32      -11.85      57.69      0.58   3.852E+00   0.87 |
  |    O          33      -88.65      91.20      0.27  -3.193E+00   0.08 |
  |    O          34       -2.67      66.68      0.99   3.792E+00   0.95 |
  |    O          35     -164.05     153.80      0.82   1.030E+00   0.77 |
  |    O          36      -88.75      86.41      0.18  -3.211E+00   0.06 |
  |    O          37      -85.58      89.70      0.08  -3.171E+00   0.07 |
  |    O          38      -85.61      85.57      0.28  -3.192E+00   0.06 |
  |    O          39      -17.43     -38.52      0.86   3.886E+00   0.89 |
  |    O          40      -90.32      92.10      0.30  -3.148E+00   0.08 |
  |    O          41      -21.27      37.77      0.70   3.917E+00   0.84 |
  |    O          42      -91.97      87.35      0.26  -3.202E+00   0.09 |
  |    O          43      -87.53      86.84      0.23  -3.247E+00   0.08 |
  |    O          44      -87.31      84.19      0.26  -3.154E+00   0.07 |
  |    O          45     -159.84     149.22      0.80   1.062E+00   0.67 |
  |    O          46     -160.09     141.95      0.86   1.076E+00   0.60 |
  |    O          47      -13.88     -38.79      0.84   3.909E+00   0.88 |
  |    O          48      -86.68      82.84      0.23  -3.116E+00   0.07 |
  |    O          49      -87.38      84.99      0.20  -3.194E+00   0.07 |
  |    O          50      -88.06      84.63      0.27  -3.222E+00   0.10 |
  |    O          51      -89.04      84.51      0.09  -3.149E+00   0.05 |
  |    O          52      -90.18      93.92      0.23  -3.214E+00   0.10 |
  |    O          53      -89.96      85.87      0.05  -3.193E+00   0.08 |
  |    O          54      -89.68      77.75      0.10  -3.269E+00   0.09 |
  |    O          55      -86.06      83.38      0.23  -3.161E+00   0.07 |
  |    O          56     -160.80     146.16      0.81   1.033E+00   0.71 |
  |    Zr          1     1616.21    -117.93      0.18  -3.610E+01   0.15 |
  |    Zr          2     1611.67    -117.13      0.07  -3.506E+01   0.13 |
  |    Zr          3     1609.71    -115.27      0.08  -3.506E+01   0.09 |
  |    Zr          4     1626.10    -123.76      0.16  -3.608E+01   0.16 |
  |    Zr          5     1630.50    -123.62      0.23  -3.697E+01   0.03 |
  |    Zr          6     1630.06    -123.31      0.22  -3.708E+01   0.07 |
  |    Sn          1     3244.80     -61.64      0.07   1.207E+02   0.11 |
  |    Sn          2     3245.19     -60.36      0.14   1.211E+02   0.14 |
  |    Sn          3     3252.20     -61.18      0.33   1.218E+02   0.12 |
  |    Sn          4     3257.68     -54.61      0.23   1.272E+02   0.13 |
  |    Sn          5     3245.25     -63.90      0.21   1.190E+02   0.16 |
  |    Sn          6     3248.22     -44.42      0.47   1.252E+02   0.10 |
  |    Sn          7     3254.30     -62.83      0.38   1.225E+02   0.13 |
  |    Sn          8     3256.39     -60.30      0.23   1.244E+02   0.17 |
  |    Sn          9     3254.59     -57.80      0.31   1.245E+02   0.10 |
  |    Sn         10     3243.64     -62.44      0.27   1.180E+02   0.12 |
  |    La          1     4657.39     652.95      0.07  -8.438E+01   0.14 |
  |    La          2     4651.90     656.96      0.08  -8.298E+01   0.14 |
  |    La          3     4649.63     624.53      0.01  -8.179E+01   0.02 |
  |    La          4     4652.71     652.59      0.01  -8.423E+01   0.03 |
  |    La          5     4604.63     507.09      0.06  -7.816E+01   0.07 |
  |    La          6     4599.00     527.84      0.08  -7.831E+01   0.10 |
  |    La          7     4651.87     625.85      0.01  -8.170E+01   0.02 |
  |    La          8     4559.44     385.67      0.05  -7.538E+01   0.11 |
  |    La          9     4649.34     664.93      0.07  -8.109E+01   0.10 |
  |    La         10     4556.49     379.77      0.05  -7.496E+01   0.08 |
  |    La         11     4497.48     224.93      0.03  -6.950E+01   0.00 |
  |    La         12     4600.48     532.90      0.07  -7.853E+01   0.10 |
  |    La         13     4608.01     528.42      0.06  -7.979E+01   0.10 |
  |    La         14     4606.81     526.70      0.06  -8.019E+01   0.11 |
  |    La         15     4610.96     501.85      0.07  -7.981E+01   0.06 |
  |    La         16     4699.90     758.50      0.02  -8.472E+01   0.06 |
  ========================================================================
 
 *********************** Forces ***********************
 *                                                    *
 *            Cartesian components (eV/A)             *
 * -------------------------------------------------- *
 *                   x            y            z      *
 *                                                    *
 * O         1     -0.00353     -0.00022      0.00052 *
 * O         2      0.00028      0.00502      0.00031 *
 * O         3      0.00900     -0.00059      0.00044 *
 * O         4      0.00150     -0.00089     -0.01286 *
 * O         5     -0.00275     -0.00019     -0.00241 *
 * O         6     -0.00853     -0.00431      0.00146 *
 * O         7      0.00784      0.00980     -0.00087 *
 * O         8     -0.00126      0.00004     -0.00146 *
 * O         9      0.00798      0.00493      0.00245 *
 * O        10     -0.00140      0.00726     -0.00245 *
 * O        11      0.01221      0.02340     -0.01733 *
 * O        12     -0.00604      0.00447      0.00185 *
 * O        13      0.00174      0.00894      0.00369 *
 * O        14     -0.02792      0.00823      0.02118 *
 * O        15      0.01300      0.00847     -0.01577 *
 * O        16     -0.01542      0.00119     -0.01623 *
 * O        17     -0.00083     -0.00076      0.00551 *
 * O        18     -0.00588      0.00246     -0.00684 *
 * O        19     -0.00489      0.00387     -0.00038 *
 * O        20     -0.02103     -0.02146     -0.00123 *
 * O        21      0.01308     -0.00169     -0.01981 *
 * O        22      0.03262      0.00328      0.03110 *
 * O        23      0.00006     -0.00436     -0.00930 *
 * O        24     -0.00598      0.00218      0.00320 *
 * O        25      0.00695     -0.00537     -0.00186 *
 * O        26     -0.00810     -0.00053      0.00818 *
 * O        27     -0.00038      0.02076      0.02226 *
 * O        28      0.00437      0.00468      0.00791 *
 * O        29      0.01969      0.03485      0.00119 *
 * O        30      0.00325      0.00173     -0.01056 *
 * O        31     -0.02309      0.03220     -0.00519 *
 * O        32      0.01657      0.01614     -0.00097 *
 * O        33      0.00667     -0.01642      0.00784 *
 * O        34     -0.00720      0.00067     -0.00634 *
 * O        35      0.00299      0.00600      0.00482 *
 * O        36      0.01999      0.00038      0.03623 *
 * O        37      0.03361     -0.03376     -0.00482 *
 * O        38      0.02562      0.00657     -0.00271 *
 * O        39      0.00507     -0.00353      0.00325 *
 * O        40     -0.01279     -0.00189     -0.01734 *
 * O        41     -0.00008     -0.01080     -0.00836 *
 * O        42      0.00213     -0.02409      0.02037 *
 * O        43     -0.02621     -0.02560      0.00170 *
 * O        44     -0.01364      0.02013      0.00090 *
 * O        45      0.00325      0.00361      0.01429 *
 * O        46     -0.00619     -0.00286      0.00035 *
 * O        47     -0.00255      0.00264     -0.00454 *
 * O        48      0.01310      0.02086     -0.00983 *
 * O        49      0.02105      0.00296     -0.02881 *
 * O        50     -0.01323     -0.00465     -0.02437 *
 * O        51     -0.00444      0.02138     -0.02008 *
 * O        52     -0.01094     -0.01596     -0.01726 *
 * O        53      0.01923     -0.03332      0.00386 *
 * O        54     -0.02624     -0.02577      0.00359 *
 * O        55     -0.02984     -0.00610      0.01643 *
 * O        56      0.00333     -0.00009      0.00754 *
 * Zr        1      0.01778      0.02724      0.00146 *
 * Zr        2     -0.00627      0.01799      0.00859 *
 * Zr        3     -0.00671      0.02789     -0.01439 *
 * Zr        4      0.01130     -0.02290      0.01263 *
 * Zr        5      0.00945      0.02082     -0.01508 *
 * Zr        6      0.01339      0.00634     -0.01694 *
 * Sn        1     -0.02180      0.00953      0.02044 *
 * Sn        2      0.00675     -0.02095      0.02616 *
 * Sn        3      0.01140     -0.00142     -0.00547 *
 * Sn        4     -0.00733      0.00508      0.01073 *
 * Sn        5      0.00300      0.00014     -0.01423 *
 * Sn        6     -0.02828     -0.02814      0.02774 *
 * Sn        7      0.00063     -0.00467      0.01124 *
 * Sn        8      0.00043     -0.01416     -0.00325 *
 * Sn        9      0.01158     -0.01706      0.00585 *
 * Sn       10     -0.00704     -0.00732     -0.00794 *
 * La        1      0.01689      0.00813     -0.00085 *
 * La        2      0.00017     -0.00457     -0.00732 *
 * La        3     -0.01157     -0.01795     -0.00875 *
 * La        4      0.00076     -0.00035      0.01259 *
 * La        5     -0.00366     -0.00354     -0.00237 *
 * La        6      0.00163      0.00486      0.01376 *
 * La        7     -0.01916     -0.01457      0.00191 *
 * La        8     -0.01018      0.01113      0.00408 *
 * La        9      0.00422      0.00178      0.00605 *
 * La       10     -0.00088      0.00283     -0.01179 *
 * La       11     -0.00128     -0.00669      0.00134 *
 * La       12     -0.00117      0.00419     -0.00482 *
 * La       13      0.00428     -0.00686     -0.00211 *
 * La       14      0.00022     -0.00369     -0.01598 *
 * La       15      0.00901     -0.00197     -0.00587 *
 * La       16     -0.01341     -0.01502      0.01021 *
 *                                                    *
 ******************************************************
 
 ***************** Stress Tensor *****************
 *                                               *
 *          Cartesian components (GPa)           *
 * --------------------------------------------- *
 *             x             y             z     *
 *                                               *
 *  x     -0.003923      0.001579     -0.000634  *
 *  y      0.001579     -0.002561     -0.019987  *
 *  z     -0.000634     -0.019987     -0.002480  *
 *                                               *
 *  Pressure:    0.0030                          *
 *                                               *
 *************************************************
 
 Pseudo atomic calculation performed for O 2s2 2p4
 
 Converged in 39 iterations to a total energy of -432.6554 eV
 
 
 Pseudo atomic calculation performed for Zr 4s2 4p6 4d2 5s2
 
 Converged in 38 iterations to a total energy of -1285.4931 eV
 
 
 Pseudo atomic calculation performed for Sn 4d10 5s2 5p2
 
 Converged in 48 iterations to a total energy of -2044.5414 eV
 
 
 Pseudo atomic calculation performed for La 5s2 5p6 5d1 6s2
 
 Converged in 34 iterations to a total energy of -968.0372 eV
 
Charge spilling parameter for spin component 1 = 0.25%
 
     Atomic Populations (Mulliken)
     -----------------------------
Species   Ion     s      p      d      f     Total  Charge (e)
==============================================================
  O        1     1.87   5.00   0.00   0.00   6.87    -0.87
  O        2     1.87   5.00   0.00   0.00   6.87    -0.87
  O        3     1.87   5.00   0.00   0.00   6.87    -0.87
  O        4     1.87   5.00   0.00   0.00   6.87    -0.87
  O        5     1.87   5.00   0.00   0.00   6.87    -0.87
  O        6     1.87   5.00   0.00   0.00   6.87    -0.87
  O        7     1.87   5.00   0.00   0.00   6.87    -0.87
  O        8     1.87   5.00   0.00   0.00   6.87    -0.87
  O        9     1.88   5.03   0.00   0.00   6.91    -0.91
  O       10     1.88   5.03   0.00   0.00   6.91    -0.91
  O       11     1.87   4.99   0.00   0.00   6.86    -0.86
  O       12     1.88   5.03   0.00   0.00   6.91    -0.91
  O       13     1.88   5.03   0.00   0.00   6.91    -0.91
  O       14     1.87   4.99   0.00   0.00   6.86    -0.86
  O       15     1.87   4.99   0.00   0.00   6.86    -0.86
  O       16     1.88   5.03   0.00   0.00   6.91    -0.91
  O       17     1.88   5.03   0.00   0.00   6.91    -0.91
  O       18     1.88   5.02   0.00   0.00   6.91    -0.91
  O       19     1.86   4.95   0.00   0.00   6.80    -0.80
  O       20     1.87   4.99   0.00   0.00   6.86    -0.86
  O       21     1.88   5.03   0.00   0.00   6.91    -0.91
  O       22     1.87   4.99   0.00   0.00   6.86    -0.86
  O       23     1.88   5.02   0.00   0.00   6.91    -0.91
  O       24     1.88   5.02   0.00   0.00   6.91    -0.91
  O       25     1.88   5.02   0.00   0.00   6.91    -0.91
  O       26     1.88   5.02   0.00   0.00   6.91    -0.91
  O       27     1.87   4.99   0.00   0.00   6.86    -0.86
  O       28     1.86   4.95   0.00   0.00   6.80    -0.80
  O       29     1.87   4.99   0.00   0.00   6.86    -0.86
  O       30     1.88   5.03   0.00   0.00   6.91    -0.91
  O       31     1.87   4.99   0.00   0.00   6.86    -0.86
  O       32     1.88   5.03   0.00   0.00   6.91    -0.91
  O       33     1.87   4.99   0.00   0.00   6.86    -0.86
  O       34     1.88   5.02   0.00   0.00   6.91    -0.91
  O       35     1.86   4.95   0.00   0.00   6.80    -0.80
  O       36     1.87   4.99   0.00   0.00   6.86    -0.86
  O       37     1.87   4.99   0.00   0.00   6.86    -0.86
  O       38     1.87   4.99   0.00   0.00   6.86    -0.86
  O       39     1.88   5.03   0.00   0.00   6.91    -0.91
  O       40     1.87   4.99   0.00   0.00   6.86    -0.86
  O       41     1.88   5.03   0.00   0.00   6.91    -0.91
  O       42     1.87   4.99   0.00   0.00   6.86    -0.86
  O       43     1.87   4.99   0.00   0.00   6.86    -0.86
  O       44     1.87   4.99   0.00   0.00   6.86    -0.86
  O       45     1.86   4.95   0.00   0.00   6.80    -0.80
  O       46     1.86   4.95   0.00   0.00   6.81    -0.81
  O       47     1.88   5.03   0.00   0.00   6.91    -0.91
  O       48     1.87   4.99   0.00   0.00   6.86    -0.86
  O       49     1.87   4.99   0.00   0.00   6.86    -0.86
  O       50     1.87   4.99   0.00   0.00   6.86    -0.86
  O       51     1.87   4.99   0.00   0.00   6.86    -0.86
  O       52     1.87   4.99   0.00   0.00   6.86    -0.86
  O       53     1.87   4.99   0.00   0.00   6.86    -0.86
  O       54     1.87   4.99   0.00   0.00   6.86    -0.86
  O       55     1.87   4.99   0.00   0.00   6.86    -0.86
  O       56     1.86   4.95   0.00   0.00   6.80    -0.80
  Zr       1     2.37   6.48   1.92   0.00  10.77     1.23
  Zr       2     2.37   6.49   1.92   0.00  10.78     1.22
  Zr       3     2.37   6.49   1.92   0.00  10.78     1.22
  Zr       4     2.37   6.48   1.92   0.00  10.77     1.23
  Zr       5     2.36   6.47   1.92   0.00  10.76     1.24
  Zr       6     2.37   6.47   1.92   0.00  10.76     1.24
  Sn       1     1.04   1.31  10.00   0.00  12.35     1.65
  Sn       2     1.04   1.31  10.00   0.00  12.35     1.65
  Sn       3     1.05   1.31  10.00   0.00  12.35     1.65
  Sn       4     1.05   1.31  10.00   0.00  12.35     1.65
  Sn       5     1.04   1.31  10.00   0.00  12.36     1.64
  Sn       6     1.04   1.31  10.00   0.00  12.35     1.65
  Sn       7     1.05   1.31  10.00   0.00  12.35     1.65
  Sn       8     1.05   1.31  10.00   0.00  12.35     1.65
  Sn       9     1.05   1.31  10.00   0.00  12.35     1.65
  Sn      10     1.04   1.31  10.00   0.00  12.35     1.65
  La       1     2.06   6.17   1.19   0.00   9.43     1.57
  La       2     2.06   6.17   1.20   0.00   9.43     1.57
  La       3     2.06   6.17   1.19   0.00   9.43     1.57
  La       4     2.03   6.17   1.20   0.00   9.40     1.60
  La       5     2.08   6.18   1.19   0.00   9.46     1.54
  La       6     2.07   6.18   1.19   0.00   9.44     1.56
  La       7     2.05   6.17   1.19   0.00   9.41     1.59
  La       8     2.09   6.20   1.19   0.00   9.48     1.52
  La       9     2.05   6.17   1.20   0.00   9.41     1.59
  La      10     2.10   6.20   1.19   0.00   9.49     1.51
  La      11     2.12   6.21   1.19   0.00   9.52     1.48
  La      12     2.07   6.18   1.19   0.00   9.44     1.56
  La      13     2.06   6.18   1.19   0.00   9.44     1.56
  La      14     2.06   6.18   1.19   0.00   9.44     1.56
  La      15     2.08   6.19   1.19   0.00   9.46     1.54
  La      16     2.02   6.16   1.20   0.00   9.38     1.62
==============================================================
 
            Bond              Population      Length (A)
============================================================
         O 33 -- Sn 6              0.35        2.09893
         O 52 -- Sn 9              0.34        2.09975
         O 43 -- Sn 8              0.35        2.10171
         O 27 -- Sn 4              0.34        2.10190
         O 50 -- Sn 7              0.34        2.10210
         O 20 -- Sn 4              0.35        2.10295
         O 54 -- Sn 5              0.35        2.10393
         O 55 -- Sn 3              0.34        2.10445
         O 47 -- Sn 2              0.34        2.10461
         O 38 -- Sn 4              0.35        2.10511
         O 47 -- Sn 1              0.34        2.10526
         O 29 -- Sn 8              0.35        2.10553
         O 22 -- Sn 8              0.34        2.10582
         O 31 -- Sn 2              0.34        2.10589
         O 21 -- Sn 6              0.34        2.10681
         O 53 -- Sn 3              0.34        2.10724
         O 37 -- Sn 1              0.34        2.10734
         O 42 -- Sn 7              0.34        2.10801
         O 36 -- Sn 10             0.34        2.10816
         O 21 -- Sn 3              0.34        2.10820
         O 10 -- Sn 2              0.34        2.10822
         O 41 -- Sn 10             0.34        2.10829
         O 16 -- Sn 10             0.34        2.10833
         O 39 -- Sn 1              0.34        2.10849
         O 28 -- Zr 4              0.41        2.10879
         O 11 -- Sn 6              0.35        2.10901
         O 41 -- Sn 1              0.33        2.10901
         O 27 -- Zr 6              0.44        2.10917
         O 40 -- Sn 4              0.34        2.10924
         O 14 -- Sn 9              0.34        2.10936
         O 39 -- Sn 5              0.33        2.10953
         O 30 -- Sn 9              0.34        2.10956
         O 16 -- Sn 2              0.33        2.10961
         O 15 -- Sn 6              0.34        2.10977
         O 32 -- Sn 6              0.34        2.10989
         O 35 -- Zr 2              0.42        2.11050
         O 44 -- Sn 9              0.34        2.11055
         O 49 -- Sn 1              0.34        2.11065
         O 17 -- Sn 5              0.34        2.11103
         O 13 -- Sn 8              0.34        2.11124
         O 13 -- Sn 7              0.34        2.11149
         O 12 -- Sn 3              0.33        2.11151
         O 10 -- Sn 5              0.33        2.11174
         O 30 -- Sn 7              0.33        2.11187
         O 12 -- Sn 8              0.33        2.11189
         O 9  -- Sn 4              0.33        2.11351
         O 22 -- Zr 5              0.44        2.11353
         O 48 -- Sn 6              0.34        2.11385
         O 9  -- Sn 9              0.34        2.11394
         O 32 -- Sn 10             0.33        2.11400
         O 24 -- Sn 9              0.34        2.11401
         O 17 -- Sn 10             0.33        2.11401
         O 51 -- Sn 2              0.34        2.11420
         O 28 -- Zr 5              0.41        2.11449
         O 52 -- Zr 1              0.43        2.11470
         O 24 -- Sn 5              0.33        2.11483
         O 18 -- Sn 7              0.33        2.11520
         O 45 -- Zr 1              0.43        2.11525
         O 18 -- Sn 3              0.34        2.11572
         O 46 -- Zr 3              0.42        2.11631
         O 43 -- Zr 2              0.44        2.11631
         O 33 -- Zr 3              0.43        2.11648
         O 56 -- Zr 1              0.42        2.11677
         O 14 -- Zr 4              0.45        2.11722
         O 26 -- Sn 10             0.33        2.11723
         O 23 -- Sn 4              0.33        2.11739
         O 19 -- Zr 5              0.42        2.11773
         O 26 -- Sn 3              0.33        2.11777
         O 42 -- Zr 2              0.44        2.11826
         O 53 -- Zr 3              0.44        2.11855
         O 35 -- Zr 6              0.41        2.11869
         O 25 -- Sn 7              0.34        2.11877
         O 40 -- Zr 3              0.45        2.11878
         O 37 -- Zr 5              0.44        2.11900
         O 31 -- Zr 6              0.44        2.11924
         O 20 -- Zr 4              0.44        2.11946
         O 19 -- Zr 6              0.42        2.11987
         O 29 -- Zr 4              0.45        2.11999
         O 50 -- Zr 1              0.43        2.11999
         O 23 -- Sn 2              0.33        2.12011
         O 25 -- Sn 5              0.33        2.12068
         O 15 -- Zr 6              0.45        2.12074
         O 38 -- Zr 2              0.44        2.12102
         O 46 -- Zr 4              0.41        2.12147
         O 55 -- Zr 2              0.43        2.12151
         O 34 -- Sn 8              0.33        2.12190
         O 34 -- Sn 1              0.33        2.12202
         O 36 -- Zr 3              0.44        2.12233
         O 54 -- Zr 1              0.44        2.12239
         O 45 -- Zr 6              0.42        2.12299
         O 11 -- Zr 5              0.45        2.12310
         O 56 -- Zr 5              0.42        2.12362
         O 44 -- Zr 3              0.44        2.12376
         O 48 -- Zr 1              0.45        2.12469
         O 49 -- Zr 4              0.44        2.12649
         O 51 -- Zr 2              0.44        2.12778
         O 8  -- La 4              0.17        2.35522
         O 1  -- La 1              0.18        2.35545
         O 7  -- La 16             0.18        2.35553
         O 4  -- La 4              0.19        2.35603
         O 5  -- La 2              0.17        2.35643
         O 7  -- La 7              0.18        2.35664
         O 3  -- La 14             0.17        2.35694
         O 7  -- La 3              0.18        2.35739
         O 4  -- La 16             0.18        2.35757
         O 6  -- La 9              0.17        2.35758
         O 2  -- La 2              0.18        2.35759
         O 6  -- La 1              0.19        2.35782
         O 4  -- La 9              0.18        2.35812
         O 2  -- La 12             0.17        2.35815
         O 8  -- La 13             0.17        2.35840
         O 5  -- La 6              0.16        2.35856
         O 3  -- La 3              0.17        2.35862
         O 2  -- La 13             0.18        2.35866
         O 1  -- La 15             0.17        2.35906
         O 6  -- La 14             0.18        2.35911
         O 2  -- La 7              0.18        2.35914
         O 4  -- La 6              0.17        2.35914
         O 6  -- La 12             0.17        2.35929
         O 8  -- La 5              0.17        2.36008
         O 5  -- La 15             0.18        2.36030
         O 3  -- La 5              0.17        2.36036
         O 3  -- La 8              0.17        2.36073
         O 1  -- La 10             0.16        2.36078
         O 5  -- La 8              0.17        2.36191
         O 8  -- La 10             0.17        2.36296
         O 1  -- La 11             0.15        2.36424
         O 7  -- La 11             0.17        2.36440
         O 19 -- La 9              0.13        2.65372
         O 45 -- La 5              0.14        2.65889
         O 23 -- La 11             0.24        2.66017
         O 56 -- La 2              0.14        2.66058
         O 47 -- La 11             0.23        2.66121
         O 34 -- La 11             0.24        2.66192
         O 30 -- La 11             0.23        2.66231
         O 35 -- La 16             0.13        2.66235
         O 35 -- La 3              0.13        2.66253
         O 46 -- La 15             0.14        2.66276
         O 25 -- La 8              0.24        2.66301
         O 28 -- La 7              0.13        2.66365
         O 13 -- La 11             0.23        2.66403
         O 46 -- La 1              0.14        2.66443
         O 9  -- La 11             0.24        2.66454
         O 28 -- La 16             0.12        2.66498
         O 55 -- La 10             0.18        2.66631
         O 39 -- La 8              0.23        2.66647
         O 17 -- La 10             0.24        2.66652
         O 53 -- La 9              0.17        2.66787
         O 18 -- La 8              0.24        2.66803
         O 52 -- La 6              0.17        2.66806
         O 38 -- La 10             0.19        2.66817
         O 10 -- La 13             0.23        2.66867
         O 56 -- La 7              0.13        2.66907
         O 26 -- La 10             0.24        2.66929
         O 49 -- La 12             0.18        2.66932
         O 24 -- La 10             0.24        2.66959
         O 32 -- La 12             0.23        2.66975
         O 43 -- La 3              0.18        2.67005
         O 50 -- La 5              0.18        2.67017
         O 48 -- La 6              0.18        2.67030
         O 44 -- La 13             0.19        2.67046
         O 29 -- La 6              0.18        2.67083
         O 18 -- La 5              0.24        2.67086
         O 51 -- La 14             0.18        2.67097
         O 33 -- La 13             0.17        2.67128
         O 41 -- La 12             0.23        2.67133
         O 16 -- La 5              0.24        2.67150
         O 43 -- La 14             0.17        2.67200
         O 45 -- La 3              0.13        2.67213
         O 27 -- La 12             0.18        2.67230
         O 37 -- La 8              0.18        2.67245
         O 21 -- La 8              0.23        2.67280
         O 36 -- La 15             0.19        2.67304
         O 10 -- La 7              0.23        2.67341
         O 21 -- La 6              0.22        2.67342
         O 17 -- La 15             0.24        2.67342
         O 14 -- La 6              0.17        2.67345
         O 12 -- La 6              0.24        2.67364
         O 32 -- La 14             0.24        2.67366
         O 24 -- La 13             0.23        2.67375
         O 16 -- La 14             0.23        2.67413
         O 42 -- La 4              0.18        2.67416
         O 39 -- La 3              0.23        2.67439
         O 15 -- La 12             0.18        2.67446
         O 42 -- La 16             0.17        2.67450
         O 25 -- La 15             0.25        2.67451
         O 26 -- La 5              0.25        2.67456
         O 33 -- La 4              0.17        2.67485
         O 20 -- La 7              0.18        2.67510
         O 20 -- La 12             0.17        2.67517
         O 40 -- La 9              0.17        2.67567
         O 19 -- La 16             0.12        2.67571
         O 54 -- La 7              0.18        2.67615
         O 54 -- La 3              0.18        2.67622
         O 9  -- La 10             0.24        2.67672
         O 36 -- La 2              0.18        2.67674
         O 12 -- La 9              0.23        2.67686
         O 41 -- La 2              0.23        2.67699
         O 31 -- La 13             0.19        2.67699
         O 22 -- La 9              0.17        2.67703
         O 53 -- La 1              0.18        2.67708
         O 22 -- La 14             0.18        2.67744
         O 50 -- La 4              0.18        2.67747
         O 23 -- La 7              0.24        2.67789
         O 11 -- La 8              0.18        2.67862
         O 40 -- La 4              0.19        2.67923
         O 52 -- La 2              0.18        2.67925
         O 34 -- La 3              0.25        2.67926
         O 13 -- La 15             0.24        2.67944
         O 14 -- La 16             0.18        2.68109
         O 11 -- La 14             0.19        2.68204
         O 44 -- La 2              0.18        2.68207
         O 31 -- La 5              0.17        2.68249
         O 29 -- La 15             0.19        2.68270
         O 47 -- La 1              0.23        2.68296
         O 55 -- La 1              0.19        2.68390
         O 38 -- La 4              0.18        2.68406
         O 37 -- La 2              0.18        2.68413
         O 49 -- La 1              0.19        2.68443
         O 30 -- La 16             0.23        2.68457
         O 51 -- La 1              0.20        2.68472
         O 48 -- La 4              0.19        2.68498
         O 27 -- La 9              0.16        2.68597
         O 15 -- La 13             0.18        2.68722
         O 14 -- O 52             -0.06        2.79299
         O 41 -- O 49             -0.06        2.79449
         O 20 -- O 27             -0.06        2.79466
         O 42 -- O 50             -0.06        2.79477
         O 13 -- O 30             -0.05        2.79543
         O 12 -- O 29             -0.06        2.79576
         O 23 -- O 47             -0.05        2.79594
         O 12 -- O 53             -0.06        2.79627
         O 17 -- O 24             -0.05        2.79704
         O 10 -- O 54             -0.06        2.79737
         O 10 -- O 31             -0.06        2.79744
         O 22 -- O 43             -0.06        2.79757
         O 32 -- O 41             -0.05        2.79769
         O 39 -- O 54             -0.06        2.79783
         O 36 -- O 41             -0.06        2.79793
         O 12 -- O 21             -0.05        2.79811
         O 34 -- O 47             -0.05        2.79862
         O 37 -- O 39             -0.06        2.79914
         O 9  -- O 30             -0.05        2.79972
         O 27 -- O 40             -0.06        2.80008
         O 16 -- O 26             -0.05        2.80068
         O 18 -- O 21             -0.05        2.80091
         O 16 -- O 32             -0.05        2.80092
         O 16 -- O 51             -0.06        2.80142
         O 21 -- O 48             -0.06        2.80210
         O 38 -- O 40             -0.06        2.80301
         O 44 -- O 52             -0.06        2.80303
         O 12 -- O 22             -0.06        2.80356
         O 10 -- O 24             -0.05        2.80361
         O 15 -- O 32             -0.06        2.80370
         O 18 -- O 50             -0.06        2.80371
         O 25 -- O 39             -0.05        2.80383
         O 26 -- O 55             -0.06        2.80387
         O 24 -- O 44             -0.06        2.80392
         O 30 -- O 42             -0.06        2.80417
         O 33 -- O 48             -0.06        2.80427
         O 15 -- O 33             -0.06        2.80502
         O 16 -- O 31             -0.06        2.80530
         O 18 -- O 25             -0.05        2.80553
         O 34 -- O 43             -0.06        2.80638
         O 37 -- O 41             -0.06        2.80646
         O 9  -- O 38             -0.05        2.80649
         O 13 -- O 34             -0.05        2.80667
         O 47 -- O 51             -0.06        2.80718
         O 17 -- O 36             -0.05        2.80746
         O 17 -- O 26             -0.05        2.80746
         O 11 -- O 21             -0.06        2.80776
         O 53 -- O 55             -0.06        2.80801
         O 10 -- O 23             -0.05        2.80818
         O 9  -- O 23             -0.05        2.80844
         O 11 -- O 32             -0.06        2.80864
         O 17 -- O 25             -0.05        2.80870
         O 18 -- O 26             -0.05        2.80883
         O 9  -- O 24             -0.05        2.80917
         O 20 -- O 23             -0.05        2.80919
         O 14 -- O 30             -0.05        2.80927
         O 47 -- O 49             -0.05        2.80942
         O 13 -- O 25             -0.05        2.80963
         O 34 -- O 39             -0.05        2.81014
         O 13 -- O 29             -0.05        2.81115
         O 19 -- O 22             -0.03        2.81415
         O 28 -- O 56             -0.03        2.81459
         O 35 -- O 42             -0.03        2.81545
         O 35 -- O 45             -0.03        2.81604
         O 35 -- O 43             -0.03        2.81639
         O 45 -- O 50             -0.03        2.81704
         O 19 -- O 28             -0.03        2.81709
         O 19 -- O 35             -0.03        2.81736
         O 19 -- O 27             -0.03        2.81746
         O 20 -- O 28             -0.03        2.81750
         O 14 -- O 28             -0.03        2.81887
         O 52 -- O 56             -0.03        2.81902
         O 40 -- O 53             -0.03        2.82150
         O 38 -- O 55             -0.03        2.82259
         O 33 -- O 44             -0.03        2.82294
         O 48 -- O 52             -0.03        2.82296
         O 33 -- O 40             -0.03        2.82466
         O 37 -- O 56             -0.03        2.82523
         O 15 -- O 27             -0.03        2.82528
         O 31 -- O 45             -0.03        2.82549
         O 36 -- O 46             -0.03        2.82594
         O 54 -- O 56             -0.03        2.82601
         O 46 -- O 49             -0.03        2.82616
         O 45 -- O 54             -0.03        2.82630
         O 29 -- O 46             -0.03        2.82684
         O 46 -- O 53             -0.03        2.82729
         O 20 -- O 49             -0.03        2.82830
         O 43 -- O 51             -0.03        2.82977
         O 14 -- O 29             -0.03        2.83027
         O 38 -- O 42             -0.03        2.83284
         O 11 -- O 37             -0.03        2.83476
         O 36 -- O 44             -0.03        2.83489
         O 11 -- O 22             -0.03        2.83628
         O 48 -- O 50             -0.03        2.83723
         O 51 -- O 55             -0.03        2.83727
         O 15 -- O 31             -0.03        2.83862
============================================================
 

Writing analysis data to 029.castep_bin

Writing model to 029.check
 
 A BibTeX formatted list of references used in this run has been written to 
 029.bib
 
Initialisation time =     54.62 s
Calculation time    =  33860.97 s
Finalisation time   =     52.65 s
Total time          =  33968.23 s
Peak Memory Use     = 2843176 kB
  
Overall parallel efficiency rating: Good (76%)                                  
  
Data was distributed by:-
G-vector (4-way); efficiency rating: Good (78%)                                 
k-point (14-way); efficiency rating: Excellent (97%)                            
