 +-------------------------------------------------+
 |                                                 |
 |      CCC   AA    SSS  TTTTT  EEEEE  PPPP        |
 |     C     A  A  S       T    E      P   P       |
 |     C     AAAA   SS     T    EEE    PPPP        |
 |     C     A  A     S    T    E      P           |
 |      CCC  A  A  SSS     T    EEEEE  P           |
 |                                                 |
 +-------------------------------------------------+
 |                                                 |
 | Welcome to Academic Release CASTEP version 16.11|          
 | Ab Initio Total Energy Program                  |
 |                                                 |
 | Authors:                                        |
 | M. Segall, M. Probert, C. Pickard, P. Hasnip,   |
 | S. Clark, K. Refson, J. R. Yates, M. Payne      |
 |                                                 |
 | Contributors:                                   |
 | P. Lindan, P. Haynes, J. White, V. Milman,      |
 | N. Govind, M. Gibson, P. Tulip, V. Cocula,      |
 | B. Montanari, D. Quigley, M. Glover,            |
 | L. Bernasconi, A. Perlov, M. Plummer,           |
 | E. McNellis, J. Meyer, J. Gale, D. Jochym       |
 | J. Aarons, B. Walker, R. Gillen, D. Jones       |
 | T. Green, I. J. Bush, C. J. Armstrong,          |
 | E. J. Higgins, E. L. Brown, M. S. McFly         |
 |                                                 |
 | Copyright (c) 2000 - 2015                       |
 |                                                 |
 |     Distributed under the terms of an           |
 |     Agreement between the United Kingdom        |
 |     Car-Parrinello (UKCP) Consortium,           |
 |     Daresbury Laboratory and Accelrys, Inc.     |
 |                                                 |
 | Please cite                                     |
 |                                                 |
 |     "First principles methods using CASTEP"     |
 |                                                 |
 |         Zeitschrift fuer Kristallographie       |
 |           220(5-6) pp. 567-570 (2005)           |
 |                                                 |
 | S. J. Clark, M. D. Segall, C. J. Pickard,       |
 | P. J. Hasnip, M. J. Probert, K. Refson,         |
 | M. C. Payne                                     |
 |                                                 |
 |       in all publications arising from          |
 |              your use of CASTEP                 |
 |                                                 |
 +-------------------------------------------------+
 
 
 Compiled for linux_x86_64_ifort16 on Sat, 23 Jul 2016 23:44:54 +0100
 from code version 
 203e84763863+ Castep161_branch Fri, 04 Mar 2016 19:21:07 +0000
 Compiler: Intel Fortran 16.0.3.210; Optimisation: fast
 MATHLIBS: Intel MKL(11.3.3) (LAPACK version 3.6.0)
 FFT Lib : mkl
 Fundamental constants values: CODATA 2010
 
 Run started: Wed, 18 Apr 2018 16:04:29 +0100
 +-------------------------------------------------+
 |                                                 |
 |           N   N    M   M    RRRR                |
 |           NN  N    MM MM    R   R               |
 |           N N N    M M M    RRRR                |
 |           N  NN    M   M    R  R                |
 |           N   N    M   M    R   R               |
 |                                                 |
 +-------------------------------------------------+
 |                                                 |
 | Welcome to Materials Studio CASTEP-NMR          |
 |                                                 |
 | Authors:                                        |
 | J.R. Yates, C.J. Pickard, F. Mauri              |
 |                                                 |
 | Contributors:                                   |
 | T.F.G. Green, S.A. Joyce                        |
 |                                                 |
 | Copyright (c) 2004 - 2015                       |
 |                                                 |
 | Please cite the appropriate publications in all |
 | work arising from your use of CASTEP NMR.       |
 |                                                 |
 | For NMR Shielding Tensors cite:                 |
 |    "All-electron magnetic response with         |
 |    pseudopotentials: NMR chemical shifts",      |
 |    C. J. Pickard, F. Mauri;                     |
 |    Physical Review B63 245101 (2001), and       |
 |                                                 |
 |    "Calculation of NMR Chemical Shifts          |
 |    for extended systems using                   |
 |    Ultrasoft Pseudopotentials",                 |
 |    J. R. Yates, C. J. Pickard and F. Mauri      |
 |    Physical Review B76 024401 (2007)            |
 |                                                 |
 | For Electric Field Gradients cite:              |
 |   "Accurate First Principles Prediction of 17O  |
 |    NMR Parameters in SiO2: Assignment of the    |
 |    Zeolite Ferrierite Spectrum"                 |
 |    M. Profeta, F. Mauri and C. J. Pickard       |
 |    J. Amer. Chem. Soc. 125 541 (2003)           |
 |                                                 |
 | For Spin-Spin (J) Couplings cite:               |
 |   "A first principles theory of NMR J-coupling  |
 |   in solid-state systems"                       |
 |   S.A. Joyce, J.R. Yates, C.J. Pickard, F. Mauri|
 |   J. Chem. Phys. 127 204107 (2007)              |
 |                                                 |
 |   "Relativistic NMR J-coupling with ultrasoft   |
 |   pseudopotentials and the zeroth-order regular |
 |   approximation"                                |
 |   T.F.G. Green and J.R. Yates                   |
 |   J. Chem. Phys. 140 234106 (2014)              |
 |                                                 |
 +-------------------------------------------------+
 
 
 Atomic calculation performed for O: 1s2 2s2 2p4
 
 Converged in 44 iterations to an ae energy of -2040.855 eV
 
 
 Atomic calculation performed for O: 1s2 2s2 2p4
 
 Exceeded max iterations: converged to 0.000000062 eV
 
   ============================================================                
   | Pseudopotential Report - Date of generation 18-04-2018   |                
   ------------------------------------------------------------                
   | Element: O Ionic charge:  6.00 Level of theory: PBE      |                
   | Atomic Solver: ZORA (scalar)                             |                
   |                                                          |                
   |               Reference Electronic Structure             |                
   |         Orbital         Occupation         Energy        |                
   |            2s              2.000           -0.881        |                
   |            2p              4.000           -0.332        |                
   |                                                          |                
   |                 Pseudopotential Definition               |                
   |        Beta     l      e      Rc     scheme   norm       |                
   |          1      0   -0.881   1.100     qc      0         |                
   |          2      0    0.250   1.100     qc      0         |                
   |          3      1   -0.332   1.100     qc      0         |                
   |          4      1    0.250   1.100     qc      0         |                
   |         loc     2    0.000   1.100     pn      0         |                
   |                                                          |                
   | Augmentation charge Rinner = 0.769                       |                
   | Partial core correction Rc = 0.769                       |                
   ------------------------------------------------------------                
   | "2|1.1|15|18|20|20:21(qc=7)"                             |                
   ------------------------------------------------------------                
   |      Author: Chris J. Pickard, Cambridge University      |                
   ============================================================                
 
 Atomic calculation performed for Zr: 1s2 2s2 2p6 3s2 3p6 3d10 4s2 4p6 4d2 5s2
 
 Converged in 53 iterations to an ae energy of -97719.888 eV
 
 
 Atomic calculation performed for Zr: 1s2 2s2 2p6 3s2 3p6 3d10 4s2 4p6 4d2 5s2
 
 Exceeded max iterations: converged to 0.000000970 eV
 
 Warning: ion_atom_descreen_psp: negative charge density encountered
   ============================================================                
   | Pseudopotential Report - Date of generation 18-04-2018   |                
   ------------------------------------------------------------                
   | Element: Zr Ionic charge: 12.00 Level of theory: PBE     |                
   | Atomic Solver: ZORA (scalar)                             |                
   |                                                          |                
   |               Reference Electronic Structure             |                
   |         Orbital         Occupation         Energy        |                
   |            4s              2.000           -2.003        |                
   |            4p              6.000           -1.193        |                
   |            5s              2.000           -0.163        |                
   |            4d              2.000           -0.132        |                
   |                                                          |                
   |                 Pseudopotential Definition               |                
   |        Beta     l      e      Rc     scheme   norm       |                
   |          1      0   -2.003   2.105     qc      0         |                
   |          2      0   -0.163   2.105     qc      0         |                
   |          3      0    0.250   2.105     qc      0         |                
   |          4      1   -1.193   2.105     qc      0         |                
   |          5      1    0.250   2.105     qc      0         |                
   |          6      2   -0.132   2.105     qc      0         |                
   |          7      2    0.250   2.105     qc      0         |                
   |         loc     3    0.000   2.105     pn      0         |                
   |                                                          |                
   | Augmentation charge Rinner = 1.471                       |                
   | Partial core correction Rc = 1.471                       |                
   ------------------------------------------------------------                
   | "3|2.1|7|8|9|40U:50:41:42"                               |                
   ------------------------------------------------------------                
   |      Author: Chris J. Pickard, Cambridge University      |                
   ============================================================                
 
 Atomic calculation performed for Sn:
 1s2 2s2 2p6 3s2 3p6 3d10 4s2 4p6 4d10 5s2 5p2
 
 Converged in 58 iterations to an ae energy of -167539.320 eV
 
 
 Atomic calculation performed for Sn:
 1s2 2s2 2p6 3s2 3p6 3d10 4s2 4p6 4d10 5s2 5p2
 
 Exceeded max iterations: converged to 0.000001154 eV
 
   ============================================================                
   | Pseudopotential Report - Date of generation 18-04-2018   |                
   ------------------------------------------------------------                
   | Element: Sn Ionic charge: 14.00 Level of theory: PBE     |                
   | Atomic Solver: ZORA (scalar)                             |                
   |                                                          |                
   |               Reference Electronic Structure             |                
   |         Orbital         Occupation         Energy        |                
   |            4d             10.000           -0.950        |                
   |            5s              2.000           -0.388        |                
   |            5p              2.000           -0.136        |                
   |                                                          |                
   |                 Pseudopotential Definition               |                
   |        Beta     l      e      Rc     scheme   norm       |                
   |          1      0   -0.388   2.199     qc      0         |                
   |          2      0    0.250   2.199     qc      0         |                
   |          3      1   -0.136   2.199     qc      0         |                
   |          4      1    0.250   2.199     qc      0         |                
   |          5      2   -0.950   2.199     qc      0         |                
   |          6      2    0.250   2.199     qc      0         |                
   |         loc     3    0.000   2.199     pn      0         |                
   |                                                          |                
   | Augmentation charge Rinner = 1.537                       |                
   | Partial core correction Rc = 1.537                       |                
   ------------------------------------------------------------                
   | "3|2.2|7|8|9|50:51:42"                                   |                
   ------------------------------------------------------------                
   |      Author: Chris J. Pickard, Cambridge University      |                
   ============================================================                
 
 Atomic calculation performed for La:
 1s2 2s2 2p6 3s2 3p6 3d10 4s2 4p6 4d10 5s2 5p6 5d1 6s2
 
 Converged in 56 iterations to an ae energy of -230121.495 eV
 
 
 Atomic calculation performed for La:
 1s2 2s2 2p6 3s2 3p6 3d10 4s2 4p6 4d10 5s2 5p6 5d1 6s2
 
 Exceeded max iterations: converged to 0.000000907 eV
 
 Warning: ion_atom_descreen_psp: negative charge density encountered
   ============================================================                
   | Pseudopotential Report - Date of generation 18-04-2018   |                
   ------------------------------------------------------------                
   | Element: La Ionic charge: 11.00 Level of theory: PBE     |                
   | Atomic Solver: ZORA (scalar)                             |                
   |                                                          |                
   |               Reference Electronic Structure             |                
   |         Orbital         Occupation         Energy        |                
   |            5s              2.000           -1.430        |                
   |            5p              6.000           -0.823        |                
   |            6s              2.000           -0.135        |                
   |            5d              1.000           -0.114        |                
   |                                                          |                
   |                 Pseudopotential Definition               |                
   |        Beta     l      e      Rc     scheme   norm       |                
   |          1      0   -1.430   2.298     qc      0         |                
   |          2      0   -0.135   2.298     qc      0         |                
   |          3      0    0.250   2.298     qc      0         |                
   |          4      1   -0.823   2.298     qc      0         |                
   |          5      1    0.250   2.298     qc      0         |                
   |          6      2   -0.114   2.298     qc      0         |                
   |          7      2    0.250   2.298     qc      0         |                
   |         loc     2    0.000   2.298     pn      0         |                
   |                                                          |                
   | Augmentation charge Rinner = 1.606                       |                
   | Partial core correction Rc = 1.606                       |                
   ------------------------------------------------------------                
   | "2|2.3|5|6|7|50U:60:51:52(qc=4.5)"                       |                
   ------------------------------------------------------------                
   |      Author: Chris J. Pickard, Cambridge University      |                
   ============================================================                
 
 Pseudo atomic calculation performed for O 2s2 2p4
 
 Converged in 39 iterations to a total energy of -432.6554 eV
 
 
 Pseudo atomic calculation performed for Zr 4s2 4p6 4d2 5s2
 
 Converged in 38 iterations to a total energy of -1285.4931 eV
 
 
 Pseudo atomic calculation performed for Sn 4d10 5s2 5p2
 
 Converged in 48 iterations to a total energy of -2044.5414 eV
 
 
 Pseudo atomic calculation performed for La 5s2 5p6 5d1 6s2
 
 Converged in 34 iterations to a total energy of -968.0372 eV
 
 Calculation parallelised over 56 processes.
 Data is distributed by G-vector(4-way) and k-point(14-way)

 ************************************ Title ************************************
 nmr testing

 ***************************** General Parameters ******************************
  
 output verbosity                               : normal  (1)
 write checkpoint data to                       : 050.check
 type of calculation                            : Magnetic Resonance
 stress calculation                             : on
 density difference calculation                 : off
 electron localisation func (ELF) calculation   : off
 Hirshfeld analysis                             : off
 unlimited duration calculation
 timing information                             : on
 memory usage estimate                          : on
 write final potential to formatted file        : off
 write final density to formatted file          : off
 write structure in CIF formatted file          : on
 write structure in CELL formatted file         : on
 write BibTeX reference list                    : on
 write OTFG pseudopotential files               : on
 checkpoint writing                             : both castep_bin and check files
  
 output         length unit                     : A
 output           mass unit                     : amu
 output           time unit                     : ps
 output         charge unit                     : e
 output           spin unit                     : hbar/2
 output         energy unit                     : eV
 output          force unit                     : eV/A
 output       velocity unit                     : A/ps
 output       pressure unit                     : GPa
 output     inv_length unit                     : 1/A
 output      frequency unit                     : cm-1
 output force constant unit                     : eV/A**2
 output         volume unit                     : A**3
 output   IR intensity unit                     : (D/A)**2/amu
 output         dipole unit                     : D
 output         efield unit                     : eV/A/e
 output        entropy unit                     : J/mol/K
  
 wavefunctions paging                           : none
 random number generator seed                   : randomised (160431201)
 data distribution                              : optimal for this architecture
 optimization strategy                          : maximize speed(+++)

 *********************** Exchange-Correlation Parameters ***********************
  
 using functional                               : Perdew Burke Ernzerhof
 relativistic treatment                         : ZORA
 DFT+D: Semi-empirical dispersion correction    : off

 ************************* Pseudopotential Parameters **************************
  
 pseudopotential representation                 : reciprocal space
 <beta|phi> representation                      : reciprocal space
 spin-orbit coupling                            : off

 **************************** Basis Set Parameters *****************************
  
 plane wave basis set cut-off                   :   816.3416   eV
 size of standard grid                          :     1.7500
 size of   fine   gmax                          :    25.6161   1/A
 finite basis set correction                    : automatic
 number of sample energies                      :          3
           sample  spacing                      :     5.0000   eV

 **************************** Electronic Parameters ****************************
  
 number of  electrons                           :  724.0    
 net charge of system                           :  0.000    
 treating system as non-spin-polarized
 number of bands                                :        434

 ********************* Electronic Minimization Parameters **********************
  
 Method: Treating system as metallic with density mixing treatment of electrons,
         and number of  SD  steps               :          1
         and number of  CG  steps               :          4
  
 total energy / atom convergence tol.           : 0.1000E-08   eV
 eigen-energy convergence tolerance             : 0.2431E-09   eV
 max force / atom convergence tol.              : ignored
 convergence tolerance window                   :          3   cycles
 max. number of SCF cycles                      :         50
 number of fixed-spin iterations                :         10
 smearing scheme                                : Gaussian
 smearing width                                 : 0.2000       eV
 Fermi energy convergence tolerance             : 0.2721E-13   eV
 periodic dipole correction                     : NONE

 ************************** Density Mixing Parameters **************************
  
 density-mixing scheme                          : Broyden
 max. length of mixing history                  :         20
 charge density mixing amplitude                : 0.8000    
 cut-off energy for mixing                      :  816.3       eV

 *********************** Population Analysis Parameters ************************
  
 Population analysis with cutoff                :  3.000       A

 ************************ Magnetic Resonance Parameters ************************
  
 Magnetic Resonance Property                    : Chemical Shielding + EFG
 Position Operator Method                       : crystal
 max. number of MagRes CG steps                 :        250
 convergence tolerance window                   :          2   cycles
 energy convergence tolerance                   : 0.1000E-11   eV
 band convergence tolerance                     : 0.1000E-08   eV

 *******************************************************************************
  
 
                           -------------------------------
                                      Unit Cell
                           -------------------------------
        Real Lattice(A)                      Reciprocal Lattice(1/A)
  10.8939673   0.0012662   0.0012667        0.5767582  -0.0000670  -0.0000670
   0.0012649  10.8954620  -0.0006280       -0.0000670   0.5766791   0.0000332
   0.0012655  -0.0006280  10.8954478       -0.0000671   0.0000332   0.5766799
 
                       Lattice parameters(A)       Cell Angles
                    a =   10.893967          alpha =   90.006605
                    b =   10.895462          beta  =   89.986683
                    c =   10.895448          gamma =   89.986689
 
                       Current cell volume = 1293.233034       A**3
 
                           -------------------------------
                                     Cell Contents
                           -------------------------------
                         Total number of ions in cell =   88
                      Total number of species in cell =    4
                        Max number of any one species =   56
 
            xxxxxxxxxxxxxxxxxxxxxxxxxxxxxxxxxxxxxxxxxxxxxxxxxxxxxxxxxxxx
            x  Element    Atom        Fractional coordinates of atoms  x
            x            Number           u          v          w      x
            x----------------------------------------------------------x
            x  O            1         0.125058   0.125012   0.124793   x 
            x  O            2         0.625050   0.125315   0.625315   x 
            x  O            3         0.125058   0.624792   0.625012   x 
            x  O            4         0.624826   0.624828   0.124828   x 
            x  O            5         0.874942   0.375208   0.374988   x 
            x  O            6         0.874942   0.874988   0.875207   x 
            x  O            7         0.375174   0.375172   0.875172   x 
            x  O            8         0.374950   0.874685   0.374685   x 
            x  O            9         0.420866   0.125495   0.125735   x 
            x  O           10         0.330591   0.124439   0.624439   x 
            x  O           11         0.829215   0.625830   0.624156   x 
            x  O           12         0.919357   0.625331   0.125331   x 
            x  O           13         0.124992   0.420724   0.123880   x 
            x  O           14         0.624725   0.329161   0.125973   x 
            x  O           15         0.625030   0.830702   0.624343   x 
            x  O           16         0.125038   0.919085   0.624427   x 
            x  O           17         0.125038   0.124427   0.419085   x 
            x  O           18         0.123737   0.625615   0.329141   x 
            x  O           19         0.624726   0.625973   0.829161   x 
            x  O           20         0.625295   0.124705   0.919779   x 
            x  O           21         0.874561   0.669622   0.374717   x 
            x  O           22         0.875008   0.579276   0.876120   x 
            x  O           23         0.373745   0.079428   0.874599   x 
            x  O           24         0.374970   0.169298   0.375657   x 
            x  O           25         0.170785   0.374170   0.375844   x 
            x  O           26         0.080279   0.875376   0.375376   x 
            x  O           27         0.579134   0.874505   0.874265   x 
            x  O           28         0.669371   0.375851   0.875851   x 
            x  O           29         0.875008   0.376120   0.079276   x 
            x  O           30         0.375274   0.374027   0.170839   x 
            x  O           31         0.374970   0.875657   0.669298   x 
            x  O           32         0.874962   0.875573   0.580915   x 
            x  O           33         0.669409   0.875561   0.375561   x 
            x  O           34         0.080643   0.374669   0.874669   x 
            x  O           35         0.375275   0.670839   0.874027   x 
            x  O           36         0.874962   0.080915   0.375573   x 
            x  O           37         0.876263   0.374385   0.670859   x 
            x  O           38         0.374705   0.875295   0.080221   x 
            x  O           39         0.125439   0.330378   0.625283   x 
            x  O           40         0.626255   0.920572   0.125401   x 
            x  O           41         0.919721   0.124624   0.624624   x 
            x  O           42         0.330629   0.624149   0.124149   x 
            x  O           43         0.124992   0.623880   0.920724   x 
            x  O           44         0.625030   0.124343   0.330702   x 
            x  O           45         0.420865   0.625735   0.625495   x 
            x  O           46         0.829214   0.124156   0.125829   x 
            x  O           47         0.125439   0.125283   0.830377   x 
            x  O           48         0.626255   0.625401   0.420572   x 
            x  O           49         0.876263   0.170860   0.874385   x 
            x  O           50         0.374705   0.580220   0.375295   x 
            x  O           51         0.170786   0.875844   0.874171   x 
            x  O           52         0.579135   0.374265   0.374505   x 
            x  O           53         0.874561   0.874717   0.169623   x 
            x  O           54         0.373745   0.374599   0.579428   x 
            x  O           55         0.123737   0.829140   0.125615   x 
            x  O           56         0.625295   0.419780   0.624705   x 
            x  Zr           1         0.500000   0.500000   0.500000   x 
            x  Zr           2         0.250264   0.749819   1.000100   x 
            x  Zr           3         0.749736   0.250181  -0.000100   x 
            x  Zr           4         0.500000  -0.000000   0.000000   x 
            x  Zr           5         0.749736   0.499899   0.750180   x 
            x  Zr           6         0.250264   0.500101   0.249820   x 
            x  Sn           1         0.750937   0.999019   0.251293   x 
            x  Sn           2         0.001422   0.249019   0.749018   x 
            x  Sn           3         0.249063   0.000981   0.748707   x 
            x  Sn           4         0.998578   0.750981   0.250982   x 
            x  Sn           5         0.249063   0.248706   0.500980   x 
            x  Sn           6         0.750937   0.751294   0.499020   x 
            x  Sn           7         0.000000   0.500000   0.000000   x 
            x  Sn           8         0.500000   0.249608   0.250391   x 
            x  Sn           9         0.500000   0.750392   0.749609   x 
            x  Sn          10         0.000000  -0.000000   0.500000   x 
            x  La           1         0.000000  -0.000000   0.000000   x 
            x  La           2         0.749698   0.250628   0.500383   x 
            x  La           3         0.250291   0.500232   0.750177   x 
            x  La           4         0.499338   0.749550   0.249549   x 
            x  La           5         0.250302   0.749372   0.499617   x 
            x  La           6         0.749709   0.499768   0.249823   x 
            x  La           7         0.500662   0.250450   0.750451   x 
            x  La           8        -0.000000   0.500000   0.500000   x 
            x  La           9         0.749711   0.749822   0.999768   x 
            x  La          10         0.250302   0.999617   0.249371   x 
            x  La          11         0.250289   0.250178   0.000232   x 
            x  La          12         0.749698   0.000383   0.750629   x 
            x  La          13         0.500000   0.000000   0.500000   x 
            x  La          14        -0.000001   0.749870   0.750130   x 
            x  La          15         0.000001   0.250130   0.249870   x 
            x  La          16         0.500000   0.500000   0.000000   x 
            xxxxxxxxxxxxxxxxxxxxxxxxxxxxxxxxxxxxxxxxxxxxxxxxxxxxxxxxxxxx
 
 
                         No user defined ionic velocities
 
                           -------------------------------
                                   Details of Species
                           -------------------------------
 
                               Mass of species in AMU
                                    O   15.9994000
                                    Zr   91.2240000
                                    Sn  118.7100000
                                    La  138.9055000
 
                          Electric Quadrupole Moment (Barn)
                                    O   -0.0255800 Isotope 17
                                    Zr   -0.1760000 Isotope 91
                                    Sn    1.0000000 No Isotope Defined
                                    La    0.2000000 Isotope139
 
                          Files used for pseudopotentials:
                                    O 2|1.1|15|18|20|20:21(qc=7)
                                    Zr 3|2.1|7|8|9|40U:50:41:42
                                    Sn 3|2.2|7|8|9|50:51:42
                                    La 2|2.3|5|6|7|50U:60:51:52(qc=4.5)
 
                           -------------------------------
                              k-Points For BZ Sampling
                           -------------------------------
                       MP grid size for SCF calculation is  3  3  3
                            with an offset of   0.000  0.000  0.000
                       Number of kpoints used =            14
 
                           -------------------------------
                               Symmetry and Constraints
                           -------------------------------
 
                      Maximum deviation from symmetry =  0.00000         ANG
 
         There are no symmetry operations specified or generated for this cell
                      Number of ionic constraints     =           3
                      Point group of crystal =     1: C1, 1, 1
                      Space group of crystal =    12: C2/m, -C 2y
 
 
                         Centre of mass is constrained
             Set iprint > 1 for details of linear ionic constraints
 
                         Number of cell constraints= 0
                         Cell constraints are:  1 2 3 4 5 6
 
                         External pressure/stress (GPa)
                          0.00000   0.00000   0.00000
                                    0.00000   0.00000
                                              0.00000
  
+---------------- MEMORY AND SCRATCH DISK ESTIMATES PER PROCESS --------------+
|                                                     Memory          Disk    |
| Baseline code, static data and system overhead      322.0 MB         0.0 MB |
| BLAS internal memory storage                          0.0 MB         0.0 MB |
| Model and support data                             1318.4 MB         0.0 MB |
| Electronic energy minimisation requirements         382.7 MB         0.0 MB |
| Force calculation requirements                       24.1 MB         0.0 MB |
| Stress calculation requirements                      28.3 MB         0.0 MB |
|                                               ----------------------------- |
| Approx. total storage required per process         2023.2 MB         0.0 MB |
|                                                                             |
| Requirements will fluctuate during execution and may exceed these estimates |
+-----------------------------------------------------------------------------+
Calculating finite basis set correction with  3 cut-off energies.
Calculating total energy with cut-off of  806.342eV.
------------------------------------------------------------------------ <-- SCF
SCF loop      Energy           Fermi           Energy gain       Timer   <-- SCF
                               energy          per atom          (sec)   <-- SCF
------------------------------------------------------------------------ <-- SCF
Initial  -5.81462530E+004  0.00000000E+000                        75.54  <-- SCF
      1  -6.60365202E+004  7.40629733E+000   8.96621268E+001     217.01  <-- SCF
      2  -6.85839273E+004  6.38991452E+000   2.89478079E+001     309.83  <-- SCF
      3  -6.86687973E+004  6.17415324E+000   9.64432313E-001     413.70  <-- SCF
      4  -6.86603513E+004  7.54256534E+000  -9.59775919E-002     543.60  <-- SCF
      5  -6.85623196E+004  6.74380731E+000  -1.11399650E+000     671.11  <-- SCF
      6  -6.85635172E+004  6.63313595E+000   1.36088660E-002     834.36  <-- SCF
      7  -6.85631385E+004  6.71470453E+000  -4.30306062E-003     970.39  <-- SCF
      8  -6.85632395E+004  6.71983965E+000   1.14715829E-003    1153.96  <-- SCF
      9  -6.85632634E+004  6.72094611E+000   2.71611848E-004    1299.10  <-- SCF
     10  -6.85632618E+004  6.72005851E+000  -1.76406707E-005    1438.13  <-- SCF
     11  -6.85632620E+004  6.72130103E+000   1.97925902E-006    1580.62  <-- SCF
     12  -6.85632622E+004  6.72147642E+000   2.90274429E-006    1725.16  <-- SCF
     13  -6.85632622E+004  6.72121553E+000   8.47105567E-009    1859.76  <-- SCF
     14  -6.85632622E+004  6.72105882E+000  -2.85879919E-007    1996.64  <-- SCF
     15  -6.85632622E+004  6.72076205E+000  -8.43349684E-008    2142.60  <-- SCF
     16  -6.85632622E+004  6.72060349E+000  -4.02347724E-009    2269.14  <-- SCF
     17  -6.85632622E+004  6.72055772E+000  -8.82217658E-009    2386.75  <-- SCF
     18  -6.85632622E+004  6.72049617E+000   5.93544803E-010    2486.30  <-- SCF
     19  -6.85632622E+004  6.72046260E+000   4.44209436E-010    2577.02  <-- SCF
     20  -6.85632622E+004  6.72046342E+000   6.41214001E-011    2664.48  <-- SCF
------------------------------------------------------------------------ <-- SCF
 
Final energy, E             =  -68563.26221150     eV
Final free energy (E-TS)    =  -68563.26221150     eV
(energies not corrected for finite basis set)
 
NB est. 0K energy (E-0.5TS)      =  -68563.26221150     eV
 
Calculating total energy with cut-off of  811.342eV.
------------------------------------------------------------------------ <-- SCF
SCF loop      Energy           Fermi           Energy gain       Timer   <-- SCF
                               energy          per atom          (sec)   <-- SCF
------------------------------------------------------------------------ <-- SCF
Initial  -6.85632622E+004  0.00000000E+000                      2700.32  <-- SCF
      1  -6.85632647E+004  6.72045923E+000   2.83509175E-005    2812.23  <-- SCF
      2  -6.85632647E+004  6.72045923E+000   1.85192728E-010    2901.76  <-- SCF
      3  -6.85632647E+004  6.72045553E+000   1.65102762E-008    2991.69  <-- SCF
      4  -6.85632647E+004  6.72046177E+000   5.55859418E-010    3080.33  <-- SCF
      5  -6.85632647E+004  6.72045987E+000  -6.94648501E-011    3170.42  <-- SCF
------------------------------------------------------------------------ <-- SCF
 
Final energy, E             =  -68563.26470789     eV
Final free energy (E-TS)    =  -68563.26470789     eV
(energies not corrected for finite basis set)
 
NB est. 0K energy (E-0.5TS)      =  -68563.26470789     eV
 
Calculating total energy with cut-off of  816.342eV.
------------------------------------------------------------------------ <-- SCF
SCF loop      Energy           Fermi           Energy gain       Timer   <-- SCF
                               energy          per atom          (sec)   <-- SCF
------------------------------------------------------------------------ <-- SCF
Initial  -6.85632647E+004  0.00000000E+000                      3206.14  <-- SCF
      1  -6.85632678E+004  6.72045921E+000   3.46313869E-005    3319.18  <-- SCF
      2  -6.85632678E+004  6.72045921E+000   2.11066275E-010    3407.09  <-- SCF
      3  -6.85632678E+004  6.72045347E+000   2.17308269E-008    3495.90  <-- SCF
      4  -6.85632678E+004  6.72045895E+000   6.94648501E-010    3586.27  <-- SCF
      5  -6.85632678E+004  6.72045507E+000  -8.43702633E-013    3675.51  <-- SCF
------------------------------------------------------------------------ <-- SCF
 
Final energy, E             =  -68563.26775744     eV
Final free energy (E-TS)    =  -68563.26775744     eV
(energies not corrected for finite basis set)
 
NB est. 0K energy (E-0.5TS)      =  -68563.26775744     eV
 
 For future reference: finite basis dEtot/dlog(Ecut) =      -0.441312eV
 Total energy corrected for finite basis set =  -68563.267738 eV
 
  =====================================================================
  +       Calculation of Nuclear Magnetic Resonance Parameters        +
  + ================================================================= +
 
  Starting Calculation of Electric Field Gradient Tensors         |<-- EFG
  +---------------- MEMORY AND SCRATCH DISK ESTIMATES PER PROCESS --------------+
  |                                                     Memory          Disk    |
  | Model and support data                             1316.2 MB         0.0 MB |
  | NMR EFG calculation requirements                    368.4 MB         0.0 MB |
  |                                               ----------------------------- |
  | Approx. total storage required per process         1684.6 MB         0.0 MB |
  |                                                                             |
  | Requirements will fluctuate during execution and may exceed these estimates |
  +-----------------------------------------------------------------------------+
  Total Time for EFG Tensors                     393.38 sec       |<-- EFG
 
  Starting Calculation of Chemical Shielding Tensors              |<-- NMR
  +---------------- MEMORY AND SCRATCH DISK ESTIMATES PER PROCESS --------------+
  |                                                     Memory          Disk    |
  | Model and support data                             1316.2 MB         0.0 MB |
  | NMR chemical shift calculation requirements         565.8 MB         0.0 MB |
  |                                               ----------------------------- |
  | Approx. total storage required per process         1882.0 MB         0.0 MB |
  |                                                                             |
  | Requirements will fluctuate during execution and may exceed these estimates |
  +-----------------------------------------------------------------------------+
  Starting k-point:   1 of   1                                    |<-- NMR
  Total Time for step 1 of 6:                   3290.27 sec       |<-- NMR
  Total Time for step 2 of 6:                   3281.94 sec       |<-- NMR
  Total Time for step 3 of 6:                   3289.26 sec       |<-- NMR
  Total Time for step 4 of 6:                   3270.05 sec       |<-- NMR
  Total Time for step 5 of 6:                   3279.92 sec       |<-- NMR
  Total Time for step 6 of 6:                   3275.66 sec       |<-- NMR
  Total Time for Chemical Shielding Tensors    29606.51 sec       |<-- NMR
 
  ========================================================================
  |           Chemical Shielding and Electric Field Gradient Tensors     |
  |----------------------------------------------------------------------|
  |     Nucleus                Shielding tensor             EFG Tensor   |
  |  Species       Ion    Iso(ppm)   Aniso(ppm)  Asym    Cq(MHz)    Eta  |
  |    O           1     -318.64      -8.49      0.99  -6.293E-02   0.46 |
  |    O           2     -318.82     -17.56      0.60  -1.876E-02   0.47 |
  |    O           3     -318.64      -8.48      0.99  -6.300E-02   0.46 |
  |    O           4     -318.97       8.81      0.84  -5.862E-02   0.90 |
  |    O           5     -318.64      -8.48      0.99  -6.300E-02   0.46 |
  |    O           6     -318.64      -8.49      0.99  -6.293E-02   0.46 |
  |    O           7     -318.97       8.81      0.84  -5.862E-02   0.90 |
  |    O           8     -318.82     -17.56      0.60  -1.876E-02   0.47 |
  |    O           9      -83.90      87.94      0.32  -3.236E+00   0.09 |
  |    O          10      -13.52     -40.37      0.82   3.901E+00   0.88 |
  |    O          11      -85.86      84.93      0.17  -3.139E+00   0.06 |
  |    O          12       -8.36      68.18      0.64   3.807E+00   0.89 |
  |    O          13      -84.50      85.19      0.18  -3.168E+00   0.07 |
  |    O          14      -89.07      93.93      0.23  -3.179E+00   0.10 |
  |    O          15        0.58      67.46      0.98   3.805E+00   0.94 |
  |    O          16      -19.22     -41.01      0.65   3.833E+00   0.90 |
  |    O          17      -19.21     -41.00      0.65   3.833E+00   0.90 |
  |    O          18      -86.20      85.74      0.12  -3.189E+00   0.06 |
  |    O          19      -89.07      93.92      0.23  -3.179E+00   0.10 |
  |    O          20     -160.78     149.54      0.86   1.067E+00   0.68 |
  |    O          21      -19.14      36.53      0.66   3.931E+00   0.84 |
  |    O          22      -84.50      85.19      0.18  -3.168E+00   0.07 |
  |    O          23      -88.82      87.95      0.13  -3.185E+00   0.08 |
  |    O          24        0.58      67.46      0.98   3.805E+00   0.94 |
  |    O          25      -85.85      84.93      0.17  -3.139E+00   0.06 |
  |    O          26      -20.43      36.93      0.91   3.879E+00   0.89 |
  |    O          27      -83.90      87.94      0.32  -3.236E+00   0.09 |
  |    O          28     -162.58     154.81      0.85   1.017E+00   0.80 |
  |    O          29      -84.50      85.21      0.18  -3.168E+00   0.07 |
  |    O          30      -89.06      93.92      0.23  -3.179E+00   0.10 |
  |    O          31        0.57      67.47      0.98   3.805E+00   0.94 |
  |    O          32      -19.21     -41.00      0.65   3.833E+00   0.90 |
  |    O          33      -13.52     -40.37      0.82   3.901E+00   0.88 |
  |    O          34       -8.36      68.18      0.64   3.807E+00   0.89 |
  |    O          35      -89.07      93.93      0.23  -3.179E+00   0.10 |
  |    O          36      -19.22     -41.00      0.65   3.833E+00   0.90 |
  |    O          37      -86.20      85.74      0.12  -3.189E+00   0.06 |
  |    O          38     -160.78     149.54      0.86   1.067E+00   0.68 |
  |    O          39      -19.14      36.53      0.66   3.931E+00   0.84 |
  |    O          40      -88.82      87.95      0.13  -3.185E+00   0.08 |
  |    O          41      -20.43      36.93      0.91   3.879E+00   0.89 |
  |    O          42     -162.58     154.81      0.85   1.017E+00   0.80 |
  |    O          43      -84.50      85.21      0.18  -3.168E+00   0.07 |
  |    O          44        0.57      67.46      0.98   3.805E+00   0.94 |
  |    O          45      -83.91      87.94      0.32  -3.236E+00   0.09 |
  |    O          46      -85.85      84.93      0.17  -3.139E+00   0.06 |
  |    O          47      -19.14      36.55      0.66   3.931E+00   0.84 |
  |    O          48      -88.82      87.95      0.13  -3.185E+00   0.08 |
  |    O          49      -86.21      85.73      0.12  -3.189E+00   0.06 |
  |    O          50     -160.78     149.55      0.86   1.067E+00   0.68 |
  |    O          51      -85.85      84.94      0.17  -3.139E+00   0.06 |
  |    O          52      -83.91      87.94      0.32  -3.236E+00   0.09 |
  |    O          53      -19.14      36.55      0.66   3.931E+00   0.84 |
  |    O          54      -88.83      87.95      0.13  -3.185E+00   0.08 |
  |    O          55      -86.21      85.73      0.12  -3.189E+00   0.06 |
  |    O          56     -160.78     149.55      0.86   1.067E+00   0.68 |
  |    Zr          1     1626.32    -124.99      0.19  -3.619E+01   0.18 |
  |    Zr          2     1624.87    -122.04      0.16  -3.618E+01   0.05 |
  |    Zr          3     1624.87    -122.03      0.16  -3.618E+01   0.05 |
  |    Zr          4     1626.32    -124.99      0.19  -3.619E+01   0.18 |
  |    Zr          5     1624.86    -122.04      0.16  -3.618E+01   0.05 |
  |    Zr          6     1624.86    -122.04      0.16  -3.618E+01   0.05 |
  |    Sn          1     3245.68     -58.11      0.08   1.212E+02   0.05 |
  |    Sn          2     3245.46     -60.19      0.15   1.205E+02   0.16 |
  |    Sn          3     3245.68     -58.11      0.08   1.212E+02   0.05 |
  |    Sn          4     3245.46     -60.19      0.15   1.205E+02   0.16 |
  |    Sn          5     3245.68     -58.10      0.08   1.212E+02   0.05 |
  |    Sn          6     3245.68     -58.10      0.08   1.212E+02   0.05 |
  |    Sn          7     3257.41     -62.64      0.06   1.284E+02   0.21 |
  |    Sn          8     3257.47     -56.22      0.32   1.270E+02   0.16 |
  |    Sn          9     3257.47     -56.22      0.32   1.270E+02   0.16 |
  |    Sn         10     3235.45     -64.93      0.24   1.156E+02   0.12 |
  |    La          1     4605.42     545.05      0.07  -8.004E+01   0.21 |
  |    La          2     4604.70     512.05      0.09  -7.888E+01   0.06 |
  |    La          3     4598.82     526.11      0.09  -7.843E+01   0.10 |
  |    La          4     4705.30     751.61      0.03  -8.564E+01   0.09 |
  |    La          5     4604.70     512.05      0.09  -7.888E+01   0.06 |
  |    La          6     4598.82     526.11      0.09  -7.843E+01   0.10 |
  |    La          7     4705.30     751.61      0.03  -8.564E+01   0.09 |
  |    La          8     4605.42     545.04      0.07  -8.004E+01   0.21 |
  |    La          9     4598.81     526.11      0.09  -7.843E+01   0.10 |
  |    La         10     4604.70     512.04      0.09  -7.888E+01   0.06 |
  |    La         11     4598.81     526.11      0.09  -7.843E+01   0.10 |
  |    La         12     4604.70     512.04      0.09  -7.888E+01   0.06 |
  |    La         13     4496.95     225.93      0.05  -7.004E+01   0.00 |
  |    La         14     4617.11     518.31      0.06  -8.006E+01   0.10 |
  |    La         15     4617.11     518.31      0.06  -8.006E+01   0.10 |
  |    La         16     4696.76     790.43      0.11  -8.463E+01   0.10 |
  ========================================================================
 
 *********************** Forces ***********************
 *                                                    *
 *            Cartesian components (eV/A)             *
 * -------------------------------------------------- *
 *                   x            y            z      *
 *                                                    *
 * O         1     -0.00062      0.00641      0.00693 *
 * O         2     -0.00756      0.01636      0.01651 *
 * O         3     -0.00065      0.00705      0.00649 *
 * O         4     -0.02132      0.00038      0.00027 *
 * O         5      0.00065     -0.00705     -0.00649 *
 * O         6      0.00062     -0.00641     -0.00693 *
 * O         7      0.02132     -0.00038     -0.00027 *
 * O         8      0.00756     -0.01636     -0.01651 *
 * O         9      0.00943      0.02432      0.01036 *
 * O        10      0.00221      0.00523      0.00526 *
 * O        11     -0.00352      0.02469     -0.02248 *
 * O        12      0.00188      0.00988      0.00984 *
 * O        13     -0.01669      0.00440     -0.02025 *
 * O        14     -0.01911     -0.00400      0.00673 *
 * O        15      0.00777     -0.01116     -0.00475 *
 * O        16     -0.00846      0.00997     -0.01679 *
 * O        17     -0.00848     -0.01687      0.00989 *
 * O        18     -0.02419      0.01929     -0.00746 *
 * O        19     -0.01909      0.00676     -0.00396 *
 * O        20     -0.00651      0.01031      0.00352 *
 * O        21      0.00116      0.01066     -0.00996 *
 * O        22      0.01669     -0.00440      0.02025 *
 * O        23     -0.02370      0.00864     -0.02930 *
 * O        24     -0.00777      0.01116      0.00475 *
 * O        25      0.00352     -0.02469      0.02248 *
 * O        26     -0.00488      0.01066      0.01062 *
 * O        27     -0.00943     -0.02432     -0.01036 *
 * O        28     -0.00561      0.00642      0.00644 *
 * O        29      0.01670      0.02023     -0.00444 *
 * O        30      0.01909     -0.00676      0.00396 *
 * O        31     -0.00775      0.00480      0.01125 *
 * O        32      0.00848      0.01687     -0.00989 *
 * O        33     -0.00221     -0.00523     -0.00526 *
 * O        34     -0.00188     -0.00988     -0.00984 *
 * O        35      0.01911      0.00400     -0.00673 *
 * O        36      0.00846     -0.00997      0.01679 *
 * O        37      0.02419     -0.01929      0.00746 *
 * O        38      0.00651     -0.01031     -0.00352 *
 * O        39     -0.00116     -0.01066      0.00996 *
 * O        40      0.02370     -0.00864      0.02930 *
 * O        41      0.00488     -0.01066     -0.01062 *
 * O        42      0.00561     -0.00642     -0.00644 *
 * O        43     -0.01670     -0.02023      0.00444 *
 * O        44      0.00775     -0.00480     -0.01125 *
 * O        45      0.00950      0.01053      0.02448 *
 * O        46     -0.00347     -0.02254      0.02468 *
 * O        47     -0.00119      0.00997     -0.01055 *
 * O        48      0.02381      0.02946     -0.00864 *
 * O        49      0.02425      0.00737     -0.01931 *
 * O        50      0.00638     -0.00347     -0.01047 *
 * O        51      0.00347      0.02254     -0.02468 *
 * O        52     -0.00950     -0.01053     -0.02448 *
 * O        53      0.00119     -0.00997      0.01055 *
 * O        54     -0.02381     -0.02946      0.00864 *
 * O        55     -0.02425     -0.00737      0.01931 *
 * O        56     -0.00638      0.00347      0.01047 *
 * Zr        1      0.00000      0.00000      0.00000 *
 * Zr        2     -0.02270      0.02242     -0.03806 *
 * Zr        3      0.02270     -0.02242      0.03806 *
 * Zr        4      0.00000     -0.00000     -0.00000 *
 * Zr        5      0.02268      0.03812     -0.02255 *
 * Zr        6     -0.02268     -0.03812      0.02255 *
 * Sn        1     -0.01120      0.03388     -0.03166 *
 * Sn        2     -0.01967      0.02063      0.02061 *
 * Sn        3      0.01120     -0.03388      0.03166 *
 * Sn        4      0.01967     -0.02063     -0.02061 *
 * Sn        5      0.01127      0.03197     -0.03371 *
 * Sn        6     -0.01127     -0.03197      0.03371 *
 * Sn        7     -0.00000     -0.00000     -0.00000 *
 * Sn        8      0.00013     -0.01339      0.01370 *
 * Sn        9     -0.00013      0.01339     -0.01370 *
 * Sn       10     -0.00000      0.00000      0.00000 *
 * La        1     -0.00000     -0.00000     -0.00000 *
 * La        2     -0.00055     -0.01077     -0.00407 *
 * La        3     -0.01611      0.00397     -0.00295 *
 * La        4      0.02186      0.02602      0.02611 *
 * La        5      0.00055      0.01077      0.00407 *
 * La        6      0.01611     -0.00397      0.00295 *
 * La        7     -0.02186     -0.02602     -0.02611 *
 * La        8     -0.00000      0.00000      0.00000 *
 * La        9      0.01598      0.00278     -0.00383 *
 * La       10      0.00066      0.00388      0.01096 *
 * La       11     -0.01598     -0.00278      0.00383 *
 * La       12     -0.00066     -0.00388     -0.01096 *
 * La       13      0.00000     -0.00000      0.00000 *
 * La       14      0.00016     -0.01272      0.01240 *
 * La       15     -0.00016      0.01272     -0.01240 *
 * La       16      0.00000     -0.00000     -0.00000 *
 *                                                    *
 ******************************************************
 
 ***************** Stress Tensor *****************
 *                                               *
 *          Cartesian components (GPa)           *
 * --------------------------------------------- *
 *             x             y             z     *
 *                                               *
 *  x     -0.009766     -0.047830     -0.047835  *
 *  y     -0.047830      0.009063      0.044187  *
 *  z     -0.047835      0.044187      0.008863  *
 *                                               *
 *  Pressure:   -0.0027                          *
 *                                               *
 *************************************************
 
 Pseudo atomic calculation performed for O 2s2 2p4
 
 Converged in 39 iterations to a total energy of -432.6554 eV
 
 
 Pseudo atomic calculation performed for Zr 4s2 4p6 4d2 5s2
 
 Converged in 38 iterations to a total energy of -1285.4931 eV
 
 
 Pseudo atomic calculation performed for Sn 4d10 5s2 5p2
 
 Converged in 48 iterations to a total energy of -2044.5414 eV
 
 
 Pseudo atomic calculation performed for La 5s2 5p6 5d1 6s2
 
 Converged in 34 iterations to a total energy of -968.0372 eV
 
Charge spilling parameter for spin component 1 = 0.25%
 
     Atomic Populations (Mulliken)
     -----------------------------
Species   Ion     s      p      d      f     Total  Charge (e)
==============================================================
  O        1     1.87   5.00   0.00   0.00   6.87    -0.87
  O        2     1.87   5.00   0.00   0.00   6.87    -0.87
  O        3     1.87   5.00   0.00   0.00   6.87    -0.87
  O        4     1.87   5.00   0.00   0.00   6.87    -0.87
  O        5     1.87   5.00   0.00   0.00   6.87    -0.87
  O        6     1.87   5.00   0.00   0.00   6.87    -0.87
  O        7     1.87   5.00   0.00   0.00   6.87    -0.87
  O        8     1.87   5.00   0.00   0.00   6.87    -0.87
  O        9     1.87   4.99   0.00   0.00   6.86    -0.86
  O       10     1.88   5.03   0.00   0.00   6.91    -0.91
  O       11     1.87   4.99   0.00   0.00   6.86    -0.86
  O       12     1.88   5.02   0.00   0.00   6.91    -0.91
  O       13     1.87   4.99   0.00   0.00   6.86    -0.86
  O       14     1.87   4.99   0.00   0.00   6.86    -0.86
  O       15     1.88   5.02   0.00   0.00   6.91    -0.91
  O       16     1.88   5.03   0.00   0.00   6.91    -0.91
  O       17     1.88   5.03   0.00   0.00   6.91    -0.91
  O       18     1.87   4.99   0.00   0.00   6.86    -0.86
  O       19     1.87   4.99   0.00   0.00   6.86    -0.86
  O       20     1.86   4.95   0.00   0.00   6.80    -0.80
  O       21     1.88   5.03   0.00   0.00   6.91    -0.91
  O       22     1.87   4.99   0.00   0.00   6.86    -0.86
  O       23     1.87   4.99   0.00   0.00   6.86    -0.86
  O       24     1.88   5.02   0.00   0.00   6.91    -0.91
  O       25     1.87   4.99   0.00   0.00   6.86    -0.86
  O       26     1.88   5.03   0.00   0.00   6.91    -0.91
  O       27     1.87   4.99   0.00   0.00   6.86    -0.86
  O       28     1.86   4.95   0.00   0.00   6.80    -0.80
  O       29     1.87   4.99   0.00   0.00   6.86    -0.86
  O       30     1.87   4.99   0.00   0.00   6.86    -0.86
  O       31     1.88   5.02   0.00   0.00   6.91    -0.91
  O       32     1.88   5.03   0.00   0.00   6.91    -0.91
  O       33     1.88   5.03   0.00   0.00   6.91    -0.91
  O       34     1.88   5.02   0.00   0.00   6.91    -0.91
  O       35     1.87   4.99   0.00   0.00   6.86    -0.86
  O       36     1.88   5.03   0.00   0.00   6.91    -0.91
  O       37     1.87   4.99   0.00   0.00   6.86    -0.86
  O       38     1.86   4.95   0.00   0.00   6.80    -0.80
  O       39     1.88   5.03   0.00   0.00   6.91    -0.91
  O       40     1.87   4.99   0.00   0.00   6.86    -0.86
  O       41     1.88   5.03   0.00   0.00   6.91    -0.91
  O       42     1.86   4.95   0.00   0.00   6.80    -0.80
  O       43     1.87   4.99   0.00   0.00   6.86    -0.86
  O       44     1.88   5.02   0.00   0.00   6.91    -0.91
  O       45     1.87   4.99   0.00   0.00   6.86    -0.86
  O       46     1.87   4.99   0.00   0.00   6.86    -0.86
  O       47     1.88   5.03   0.00   0.00   6.91    -0.91
  O       48     1.87   4.99   0.00   0.00   6.86    -0.86
  O       49     1.87   4.99   0.00   0.00   6.86    -0.86
  O       50     1.86   4.95   0.00   0.00   6.80    -0.80
  O       51     1.87   4.99   0.00   0.00   6.86    -0.86
  O       52     1.87   4.99   0.00   0.00   6.86    -0.86
  O       53     1.88   5.03   0.00   0.00   6.91    -0.91
  O       54     1.87   4.99   0.00   0.00   6.86    -0.86
  O       55     1.87   4.99   0.00   0.00   6.86    -0.86
  O       56     1.86   4.95   0.00   0.00   6.80    -0.80
  Zr       1     2.36   6.48   1.92   0.00  10.77     1.23
  Zr       2     2.37   6.48   1.92   0.00  10.77     1.23
  Zr       3     2.37   6.48   1.92   0.00  10.77     1.23
  Zr       4     2.36   6.48   1.92   0.00  10.77     1.23
  Zr       5     2.37   6.48   1.92   0.00  10.77     1.23
  Zr       6     2.37   6.48   1.92   0.00  10.77     1.23
  Sn       1     1.04   1.31  10.00   0.00  12.35     1.65
  Sn       2     1.04   1.31  10.00   0.00  12.35     1.65
  Sn       3     1.04   1.31  10.00   0.00  12.35     1.65
  Sn       4     1.04   1.31  10.00   0.00  12.35     1.65
  Sn       5     1.04   1.31  10.00   0.00  12.35     1.65
  Sn       6     1.04   1.31  10.00   0.00  12.35     1.65
  Sn       7     1.05   1.31  10.00   0.00  12.35     1.65
  Sn       8     1.05   1.31  10.00   0.00  12.36     1.64
  Sn       9     1.05   1.31  10.00   0.00  12.36     1.64
  Sn      10     1.04   1.31  10.00   0.00  12.36     1.64
  La       1     2.08   6.18   1.19   0.00   9.46     1.54
  La       2     2.09   6.18   1.19   0.00   9.46     1.54
  La       3     2.07   6.18   1.19   0.00   9.44     1.56
  La       4     2.02   6.16   1.19   0.00   9.38     1.62
  La       5     2.09   6.18   1.19   0.00   9.46     1.54
  La       6     2.07   6.18   1.19   0.00   9.44     1.56
  La       7     2.02   6.16   1.19   0.00   9.38     1.62
  La       8     2.08   6.18   1.19   0.00   9.46     1.54
  La       9     2.07   6.18   1.19   0.00   9.44     1.56
  La      10     2.09   6.18   1.19   0.00   9.46     1.54
  La      11     2.07   6.18   1.19   0.00   9.44     1.56
  La      12     2.09   6.18   1.19   0.00   9.46     1.54
  La      13     2.12   6.21   1.19   0.00   9.52     1.48
  La      14     2.06   6.19   1.19   0.00   9.43     1.57
  La      15     2.06   6.19   1.19   0.00   9.43     1.57
  La      16     2.02   6.16   1.20   0.00   9.38     1.62
==============================================================
 
            Bond              Population      Length (A)
============================================================
         O 27 -- Sn 9              0.35        2.10169
         O 9  -- Sn 8              0.35        2.10169
         O 45 -- Sn 9              0.35        2.10172
         O 52 -- Sn 8              0.35        2.10172
         O 13 -- Sn 7              0.35        2.10298
         O 22 -- Sn 7              0.35        2.10298
         O 43 -- Sn 7              0.35        2.10298
         O 29 -- Sn 7              0.35        2.10298
         O 39 -- Sn 2              0.34        2.10442
         O 21 -- Sn 4              0.34        2.10442
         O 47 -- Sn 2              0.34        2.10442
         O 53 -- Sn 4              0.34        2.10442
         O 33 -- Sn 6              0.34        2.10519
         O 10 -- Sn 5              0.34        2.10519
         O 33 -- Sn 1              0.34        2.10519
         O 10 -- Sn 3              0.34        2.10519
         O 30 -- Sn 8              0.34        2.10597
         O 19 -- Sn 9              0.34        2.10597
         O 35 -- Sn 9              0.34        2.10597
         O 14 -- Sn 8              0.34        2.10597
         O 53 -- Sn 1              0.33        2.10669
         O 47 -- Sn 3              0.33        2.10669
         O 21 -- Sn 6              0.33        2.10669
         O 39 -- Sn 5              0.33        2.10669
         O 18 -- Sn 4              0.34        2.10949
         O 37 -- Sn 2              0.34        2.10949
         O 55 -- Sn 4              0.34        2.10949
         O 49 -- Sn 2              0.34        2.10949
         O 26 -- Sn 10             0.34        2.10968
         O 41 -- Sn 10             0.34        2.10968
         O 51 -- Sn 3              0.34        2.11073
         O 46 -- Sn 1              0.34        2.11073
         O 25 -- Sn 5              0.34        2.11074
         O 11 -- Sn 6              0.34        2.11074
         O 32 -- Sn 6              0.34        2.11101
         O 17 -- Sn 5              0.34        2.11101
         O 16 -- Sn 3              0.34        2.11102
         O 36 -- Sn 1              0.34        2.11102
         O 23 -- Sn 3              0.34        2.11140
         O 40 -- Sn 1              0.34        2.11140
         O 48 -- Sn 6              0.34        2.11142
         O 54 -- Sn 5              0.34        2.11142
         O 26 -- Sn 4              0.33        2.11346
         O 41 -- Sn 2              0.33        2.11346
         O 42 -- Zr 6              0.41        2.11387
         O 28 -- Zr 5              0.41        2.11387
         O 28 -- Zr 3              0.41        2.11388
         O 42 -- Zr 2              0.41        2.11388
         O 56 -- Zr 5              0.41        2.11423
         O 50 -- Zr 6              0.41        2.11423
         O 20 -- Zr 3              0.41        2.11423
         O 38 -- Zr 2              0.41        2.11423
         O 16 -- Sn 10             0.33        2.11452
         O 36 -- Sn 10             0.33        2.11452
         O 32 -- Sn 10             0.33        2.11452
         O 17 -- Sn 10             0.33        2.11452
         O 56 -- Zr 1              0.41        2.11512
         O 50 -- Zr 1              0.41        2.11512
         O 38 -- Zr 4              0.41        2.11513
         O 20 -- Zr 4              0.41        2.11513
         O 14 -- Zr 3              0.45        2.11668
         O 35 -- Zr 2              0.45        2.11668
         O 19 -- Zr 5              0.45        2.11668
         O 30 -- Zr 6              0.45        2.11668
         O 24 -- Sn 8              0.33        2.11745
         O 15 -- Sn 9              0.33        2.11745
         O 31 -- Sn 9              0.33        2.11745
         O 44 -- Sn 8              0.33        2.11745
         O 52 -- Zr 1              0.45        2.11849
         O 45 -- Zr 1              0.45        2.11849
         O 27 -- Zr 4              0.45        2.11849
         O 9  -- Zr 4              0.45        2.11849
         O 24 -- Sn 5              0.33        2.11959
         O 15 -- Sn 6              0.33        2.11959
         O 31 -- Sn 3              0.33        2.11960
         O 44 -- Sn 1              0.33        2.11960
         O 34 -- Sn 2              0.33        2.11990
         O 12 -- Sn 4              0.33        2.11990
         O 29 -- Zr 3              0.44        2.11999
         O 43 -- Zr 2              0.44        2.11999
         O 13 -- Zr 6              0.44        2.11999
         O 22 -- Zr 5              0.44        2.11999
         O 12 -- Sn 7              0.32        2.12123
         O 34 -- Sn 7              0.32        2.12123
         O 54 -- Zr 1              0.45        2.12322
         O 48 -- Zr 1              0.45        2.12322
         O 40 -- Zr 4              0.45        2.12323
         O 23 -- Zr 4              0.45        2.12323
         O 55 -- Zr 2              0.45        2.12492
         O 49 -- Zr 3              0.45        2.12492
         O 18 -- Zr 6              0.45        2.12493
         O 37 -- Zr 5              0.45        2.12493
         O 46 -- Zr 3              0.44        2.12556
         O 51 -- Zr 2              0.44        2.12556
         O 11 -- Zr 5              0.44        2.12557
         O 25 -- Zr 6              0.44        2.12557
         O 4  -- La 16             0.18        2.35585
         O 7  -- La 16             0.18        2.35585
         O 2  -- La 7              0.18        2.35624
         O 8  -- La 4              0.18        2.35624
         O 4  -- La 4              0.19        2.35795
         O 7  -- La 7              0.19        2.35795
         O 5  -- La 8              0.17        2.35824
         O 3  -- La 8              0.17        2.35824
         O 6  -- La 1              0.17        2.35824
         O 1  -- La 1              0.17        2.35824
         O 2  -- La 2              0.17        2.35825
         O 8  -- La 5              0.17        2.35825
         O 8  -- La 10             0.17        2.35826
         O 2  -- La 12             0.17        2.35826
         O 7  -- La 3              0.17        2.35853
         O 4  -- La 6              0.17        2.35853
         O 4  -- La 9              0.17        2.35854
         O 7  -- La 11             0.17        2.35854
         O 1  -- La 11             0.16        2.35866
         O 6  -- La 9              0.16        2.35866
         O 3  -- La 3              0.16        2.35866
         O 5  -- La 6              0.16        2.35866
         O 6  -- La 14             0.18        2.35996
         O 1  -- La 15             0.18        2.35996
         O 5  -- La 15             0.18        2.35998
         O 3  -- La 14             0.18        2.35998
         O 6  -- La 12             0.17        2.36029
         O 1  -- La 10             0.17        2.36029
         O 5  -- La 2              0.17        2.36030
         O 3  -- La 5              0.17        2.36030
         O 2  -- La 13             0.16        2.36338
         O 8  -- La 13             0.16        2.36338
         O 42 -- La 16             0.12        2.65727
         O 28 -- La 16             0.12        2.65727
         O 38 -- La 10             0.13        2.65809
         O 20 -- La 12             0.13        2.65809
         O 50 -- La 5              0.13        2.65810
         O 56 -- La 2              0.13        2.65810
         O 10 -- La 13             0.22        2.66078
         O 33 -- La 13             0.22        2.66078
         O 44 -- La 13             0.24        2.66334
         O 31 -- La 13             0.24        2.66334
         O 15 -- La 13             0.24        2.66334
         O 24 -- La 13             0.24        2.66334
         O 42 -- La 4              0.13        2.66709
         O 28 -- La 7              0.13        2.66709
         O 38 -- La 4              0.13        2.66929
         O 20 -- La 7              0.13        2.66929
         O 50 -- La 4              0.13        2.66930
         O 56 -- La 7              0.13        2.66930
         O 12 -- La 9              0.24        2.66972
         O 34 -- La 11             0.24        2.66972
         O 12 -- La 6              0.24        2.66973
         O 34 -- La 3              0.24        2.66973
         O 36 -- La 2              0.23        2.66982
         O 16 -- La 5              0.23        2.66982
         O 21 -- La 6              0.23        2.66983
         O 39 -- La 3              0.23        2.66983
         O 17 -- La 10             0.23        2.66983
         O 32 -- La 12             0.23        2.66983
         O 53 -- La 9              0.23        2.66983
         O 47 -- La 11             0.23        2.66983
         O 22 -- La 9              0.17        2.66989
         O 13 -- La 11             0.17        2.66989
         O 29 -- La 6              0.17        2.66991
         O 43 -- La 3              0.17        2.66991
         O 17 -- La 15             0.23        2.67044
         O 32 -- La 14             0.23        2.67044
         O 36 -- La 15             0.23        2.67045
         O 16 -- La 14             0.23        2.67045
         O 30 -- La 11             0.18        2.67049
         O 19 -- La 9              0.18        2.67049
         O 35 -- La 3              0.18        2.67049
         O 14 -- La 6              0.18        2.67049
         O 54 -- La 3              0.17        2.67224
         O 48 -- La 6              0.17        2.67224
         O 40 -- La 9              0.17        2.67226
         O 23 -- La 11             0.17        2.67226
         O 21 -- La 8              0.23        2.67329
         O 39 -- La 8              0.23        2.67329
         O 53 -- La 1              0.23        2.67329
         O 47 -- La 1              0.23        2.67329
         O 41 -- La 2              0.24        2.67363
         O 26 -- La 5              0.24        2.67363
         O 26 -- La 10             0.24        2.67364
         O 41 -- La 12             0.24        2.67364
         O 27 -- La 12             0.19        2.67370
         O 9  -- La 10             0.19        2.67370
         O 52 -- La 2              0.19        2.67370
         O 45 -- La 5              0.19        2.67370
         O 18 -- La 8              0.19        2.67507
         O 37 -- La 8              0.19        2.67507
         O 55 -- La 1              0.19        2.67508
         O 49 -- La 1              0.19        2.67508
         O 44 -- La 2              0.24        2.67526
         O 31 -- La 5              0.24        2.67526
         O 15 -- La 12             0.24        2.67527
         O 24 -- La 10             0.24        2.67527
         O 25 -- La 8              0.18        2.67736
         O 11 -- La 8              0.18        2.67736
         O 51 -- La 1              0.18        2.67736
         O 46 -- La 1              0.18        2.67736
         O 52 -- La 6              0.17        2.67744
         O 45 -- La 3              0.17        2.67744
         O 9  -- La 11             0.17        2.67746
         O 27 -- La 9              0.17        2.67746
         O 18 -- La 5              0.18        2.67782
         O 37 -- La 2              0.18        2.67782
         O 55 -- La 10             0.18        2.67782
         O 49 -- La 12             0.18        2.67782
         O 25 -- La 15             0.19        2.67840
         O 11 -- La 14             0.19        2.67840
         O 51 -- La 14             0.19        2.67841
         O 46 -- La 15             0.19        2.67841
         O 13 -- La 15             0.18        2.68219
         O 22 -- La 14             0.18        2.68219
         O 29 -- La 15             0.18        2.68219
         O 43 -- La 14             0.18        2.68219
         O 35 -- La 16             0.17        2.68236
         O 14 -- La 16             0.17        2.68236
         O 30 -- La 16             0.17        2.68236
         O 19 -- La 16             0.17        2.68236
         O 10 -- La 7              0.22        2.68413
         O 33 -- La 4              0.22        2.68413
         O 40 -- La 4              0.19        2.68595
         O 23 -- La 7              0.19        2.68595
         O 54 -- La 7              0.19        2.68597
         O 48 -- La 4              0.19        2.68597
         O 40 -- O 53             -0.06        2.79267
         O 23 -- O 47             -0.06        2.79267
         O 21 -- O 48             -0.06        2.79267
         O 39 -- O 54             -0.06        2.79267
         O 35 -- O 45             -0.06        2.79637
         O 14 -- O 52             -0.06        2.79637
         O 9  -- O 30             -0.06        2.79637
         O 19 -- O 27             -0.06        2.79637
         O 15 -- O 33             -0.05        2.79638
         O 10 -- O 24             -0.05        2.79638
         O 10 -- O 31             -0.05        2.79639
         O 33 -- O 44             -0.05        2.79639
         O 36 -- O 41             -0.05        2.79789
         O 16 -- O 26             -0.05        2.79789
         O 17 -- O 26             -0.05        2.79789
         O 32 -- O 41             -0.05        2.79789
         O 37 -- O 39             -0.06        2.80067
         O 18 -- O 21             -0.06        2.80067
         O 53 -- O 55             -0.06        2.80067
         O 47 -- O 49             -0.06        2.80067
         O 12 -- O 21             -0.05        2.80233
         O 34 -- O 39             -0.05        2.80233
         O 12 -- O 53             -0.05        2.80233
         O 34 -- O 47             -0.05        2.80233
         O 11 -- O 21             -0.06        2.80316
         O 25 -- O 39             -0.06        2.80316
         O 46 -- O 53             -0.06        2.80317
         O 47 -- O 51             -0.06        2.80317
         O 12 -- O 22             -0.06        2.80326
         O 13 -- O 34             -0.06        2.80326
         O 12 -- O 29             -0.06        2.80326
         O 34 -- O 43             -0.06        2.80326
         O 14 -- O 30             -0.06        2.80384
         O 19 -- O 35             -0.06        2.80384
         O 17 -- O 36             -0.05        2.80581
         O 16 -- O 32             -0.05        2.80581
         O 17 -- O 25             -0.06        2.80631
         O 11 -- O 32             -0.06        2.80631
         O 16 -- O 51             -0.06        2.80631
         O 36 -- O 46             -0.06        2.80631
         O 36 -- O 44             -0.05        2.80648
         O 16 -- O 31             -0.05        2.80648
         O 17 -- O 24             -0.05        2.80648
         O 15 -- O 32             -0.05        2.80648
         O 37 -- O 41             -0.06        2.80751
         O 18 -- O 26             -0.06        2.80751
         O 41 -- O 49             -0.06        2.80751
         O 26 -- O 55             -0.06        2.80751
         O 22 -- O 43             -0.06        2.80891
         O 13 -- O 29             -0.06        2.80891
         O 10 -- O 23             -0.05        2.80913
         O 33 -- O 40             -0.05        2.80913
         O 10 -- O 54             -0.05        2.80913
         O 33 -- O 48             -0.05        2.80913
         O 15 -- O 27             -0.05        2.80918
         O 9  -- O 24             -0.05        2.80918
         O 31 -- O 45             -0.05        2.80919
         O 44 -- O 52             -0.05        2.80919
         O 15 -- O 31             -0.05        2.81060
         O 24 -- O 44             -0.05        2.81060
         O 14 -- O 28             -0.03        2.81457
         O 35 -- O 42             -0.03        2.81457
         O 30 -- O 42             -0.03        2.81458
         O 19 -- O 28             -0.03        2.81458
         O 45 -- O 50             -0.03        2.81612
         O 52 -- O 56             -0.03        2.81612
         O 9  -- O 38             -0.03        2.81613
         O 20 -- O 27             -0.03        2.81613
         O 20 -- O 28             -0.03        2.81923
         O 38 -- O 42             -0.03        2.81923
         O 42 -- O 50             -0.03        2.81923
         O 28 -- O 56             -0.03        2.81923
         O 19 -- O 22             -0.03        2.82044
         O 13 -- O 30             -0.03        2.82044
         O 14 -- O 29             -0.03        2.82044
         O 35 -- O 43             -0.03        2.82044
         O 20 -- O 49             -0.03        2.82356
         O 38 -- O 55             -0.03        2.82356
         O 37 -- O 56             -0.03        2.82357
         O 18 -- O 50             -0.03        2.82357
         O 48 -- O 50             -0.03        2.82782
         O 54 -- O 56             -0.03        2.82782
         O 38 -- O 40             -0.03        2.82783
         O 20 -- O 23             -0.03        2.82783
         O 48 -- O 52             -0.03        2.82894
         O 45 -- O 54             -0.03        2.82894
         O 9  -- O 23             -0.03        2.82895
         O 27 -- O 40             -0.03        2.82895
         O 51 -- O 55             -0.03        2.83317
         O 46 -- O 49             -0.03        2.83317
         O 11 -- O 37             -0.03        2.83317
         O 18 -- O 25             -0.03        2.83317
         O 11 -- O 22             -0.03        2.83609
         O 13 -- O 25             -0.03        2.83609
         O 29 -- O 46             -0.03        2.83610
         O 43 -- O 51             -0.03        2.83610
============================================================
 

Writing analysis data to 050.castep_bin

Writing model to 050.check
 
 A BibTeX formatted list of references used in this run has been written to 
 050.bib
 
Initialisation time =     54.48 s
Calculation time    =  34092.38 s
Finalisation time   =     74.38 s
Total time          =  34221.23 s
Peak Memory Use     = 2844128 kB
  
Overall parallel efficiency rating: Good (76%)                                  
  
Data was distributed by:-
G-vector (4-way); efficiency rating: Good (78%)                                 
k-point (14-way); efficiency rating: Excellent (97%)                            
