 +-------------------------------------------------+
 |                                                 |
 |      CCC   AA    SSS  TTTTT  EEEEE  PPPP        |
 |     C     A  A  S       T    E      P   P       |
 |     C     AAAA   SS     T    EEE    PPPP        |
 |     C     A  A     S    T    E      P           |
 |      CCC  A  A  SSS     T    EEEEE  P           |
 |                                                 |
 +-------------------------------------------------+
 |                                                 |
 | Welcome to Academic Release CASTEP version 16.11|          
 | Ab Initio Total Energy Program                  |
 |                                                 |
 | Authors:                                        |
 | M. Segall, M. Probert, C. Pickard, P. Hasnip,   |
 | S. Clark, K. Refson, J. R. Yates, M. Payne      |
 |                                                 |
 | Contributors:                                   |
 | P. Lindan, P. Haynes, J. White, V. Milman,      |
 | N. Govind, M. Gibson, P. Tulip, V. Cocula,      |
 | B. Montanari, D. Quigley, M. Glover,            |
 | L. Bernasconi, A. Perlov, M. Plummer,           |
 | E. McNellis, J. Meyer, J. Gale, D. Jochym       |
 | J. Aarons, B. Walker, R. Gillen, D. Jones       |
 | T. Green, I. J. Bush, C. J. Armstrong,          |
 | E. J. Higgins, E. L. Brown, M. S. McFly         |
 |                                                 |
 | Copyright (c) 2000 - 2015                       |
 |                                                 |
 |     Distributed under the terms of an           |
 |     Agreement between the United Kingdom        |
 |     Car-Parrinello (UKCP) Consortium,           |
 |     Daresbury Laboratory and Accelrys, Inc.     |
 |                                                 |
 | Please cite                                     |
 |                                                 |
 |     "First principles methods using CASTEP"     |
 |                                                 |
 |         Zeitschrift fuer Kristallographie       |
 |           220(5-6) pp. 567-570 (2005)           |
 |                                                 |
 | S. J. Clark, M. D. Segall, C. J. Pickard,       |
 | P. J. Hasnip, M. J. Probert, K. Refson,         |
 | M. C. Payne                                     |
 |                                                 |
 |       in all publications arising from          |
 |              your use of CASTEP                 |
 |                                                 |
 +-------------------------------------------------+
 
 
 Compiled for linux_x86_64_ifort16 on Sat, 23 Jul 2016 23:44:54 +0100
 from code version 
 203e84763863+ Castep161_branch Fri, 04 Mar 2016 19:21:07 +0000
 Compiler: Intel Fortran 16.0.3.210; Optimisation: fast
 MATHLIBS: Intel MKL(11.3.3) (LAPACK version 3.6.0)
 FFT Lib : mkl
 Fundamental constants values: CODATA 2010
 
 Run started: Thu, 19 Apr 2018 14:26:33 +0100
 +-------------------------------------------------+
 |                                                 |
 |           N   N    M   M    RRRR                |
 |           NN  N    MM MM    R   R               |
 |           N N N    M M M    RRRR                |
 |           N  NN    M   M    R  R                |
 |           N   N    M   M    R   R               |
 |                                                 |
 +-------------------------------------------------+
 |                                                 |
 | Welcome to Materials Studio CASTEP-NMR          |
 |                                                 |
 | Authors:                                        |
 | J.R. Yates, C.J. Pickard, F. Mauri              |
 |                                                 |
 | Contributors:                                   |
 | T.F.G. Green, S.A. Joyce                        |
 |                                                 |
 | Copyright (c) 2004 - 2015                       |
 |                                                 |
 | Please cite the appropriate publications in all |
 | work arising from your use of CASTEP NMR.       |
 |                                                 |
 | For NMR Shielding Tensors cite:                 |
 |    "All-electron magnetic response with         |
 |    pseudopotentials: NMR chemical shifts",      |
 |    C. J. Pickard, F. Mauri;                     |
 |    Physical Review B63 245101 (2001), and       |
 |                                                 |
 |    "Calculation of NMR Chemical Shifts          |
 |    for extended systems using                   |
 |    Ultrasoft Pseudopotentials",                 |
 |    J. R. Yates, C. J. Pickard and F. Mauri      |
 |    Physical Review B76 024401 (2007)            |
 |                                                 |
 | For Electric Field Gradients cite:              |
 |   "Accurate First Principles Prediction of 17O  |
 |    NMR Parameters in SiO2: Assignment of the    |
 |    Zeolite Ferrierite Spectrum"                 |
 |    M. Profeta, F. Mauri and C. J. Pickard       |
 |    J. Amer. Chem. Soc. 125 541 (2003)           |
 |                                                 |
 | For Spin-Spin (J) Couplings cite:               |
 |   "A first principles theory of NMR J-coupling  |
 |   in solid-state systems"                       |
 |   S.A. Joyce, J.R. Yates, C.J. Pickard, F. Mauri|
 |   J. Chem. Phys. 127 204107 (2007)              |
 |                                                 |
 |   "Relativistic NMR J-coupling with ultrasoft   |
 |   pseudopotentials and the zeroth-order regular |
 |   approximation"                                |
 |   T.F.G. Green and J.R. Yates                   |
 |   J. Chem. Phys. 140 234106 (2014)              |
 |                                                 |
 +-------------------------------------------------+
 
 
 Atomic calculation performed for O: 1s2 2s2 2p4
 
 Converged in 44 iterations to an ae energy of -2040.855 eV
 
 
 Atomic calculation performed for O: 1s2 2s2 2p4
 
 Exceeded max iterations: converged to 0.000000062 eV
 
   ============================================================                
   | Pseudopotential Report - Date of generation 19-04-2018   |                
   ------------------------------------------------------------                
   | Element: O Ionic charge:  6.00 Level of theory: PBE      |                
   | Atomic Solver: ZORA (scalar)                             |                
   |                                                          |                
   |               Reference Electronic Structure             |                
   |         Orbital         Occupation         Energy        |                
   |            2s              2.000           -0.881        |                
   |            2p              4.000           -0.332        |                
   |                                                          |                
   |                 Pseudopotential Definition               |                
   |        Beta     l      e      Rc     scheme   norm       |                
   |          1      0   -0.881   1.100     qc      0         |                
   |          2      0    0.250   1.100     qc      0         |                
   |          3      1   -0.332   1.100     qc      0         |                
   |          4      1    0.250   1.100     qc      0         |                
   |         loc     2    0.000   1.100     pn      0         |                
   |                                                          |                
   | Augmentation charge Rinner = 0.769                       |                
   | Partial core correction Rc = 0.769                       |                
   ------------------------------------------------------------                
   | "2|1.1|15|18|20|20:21(qc=7)"                             |                
   ------------------------------------------------------------                
   |      Author: Chris J. Pickard, Cambridge University      |                
   ============================================================                
 
 Atomic calculation performed for Zr: 1s2 2s2 2p6 3s2 3p6 3d10 4s2 4p6 4d2 5s2
 
 Converged in 53 iterations to an ae energy of -97719.888 eV
 
 
 Atomic calculation performed for Zr: 1s2 2s2 2p6 3s2 3p6 3d10 4s2 4p6 4d2 5s2
 
 Exceeded max iterations: converged to 0.000000970 eV
 
 Warning: ion_atom_descreen_psp: negative charge density encountered
   ============================================================                
   | Pseudopotential Report - Date of generation 19-04-2018   |                
   ------------------------------------------------------------                
   | Element: Zr Ionic charge: 12.00 Level of theory: PBE     |                
   | Atomic Solver: ZORA (scalar)                             |                
   |                                                          |                
   |               Reference Electronic Structure             |                
   |         Orbital         Occupation         Energy        |                
   |            4s              2.000           -2.003        |                
   |            4p              6.000           -1.193        |                
   |            5s              2.000           -0.163        |                
   |            4d              2.000           -0.132        |                
   |                                                          |                
   |                 Pseudopotential Definition               |                
   |        Beta     l      e      Rc     scheme   norm       |                
   |          1      0   -2.003   2.105     qc      0         |                
   |          2      0   -0.163   2.105     qc      0         |                
   |          3      0    0.250   2.105     qc      0         |                
   |          4      1   -1.193   2.105     qc      0         |                
   |          5      1    0.250   2.105     qc      0         |                
   |          6      2   -0.132   2.105     qc      0         |                
   |          7      2    0.250   2.105     qc      0         |                
   |         loc     3    0.000   2.105     pn      0         |                
   |                                                          |                
   | Augmentation charge Rinner = 1.471                       |                
   | Partial core correction Rc = 1.471                       |                
   ------------------------------------------------------------                
   | "3|2.1|7|8|9|40U:50:41:42"                               |                
   ------------------------------------------------------------                
   |      Author: Chris J. Pickard, Cambridge University      |                
   ============================================================                
 
 Atomic calculation performed for Sn:
 1s2 2s2 2p6 3s2 3p6 3d10 4s2 4p6 4d10 5s2 5p2
 
 Converged in 58 iterations to an ae energy of -167539.320 eV
 
 
 Atomic calculation performed for Sn:
 1s2 2s2 2p6 3s2 3p6 3d10 4s2 4p6 4d10 5s2 5p2
 
 Exceeded max iterations: converged to 0.000001154 eV
 
   ============================================================                
   | Pseudopotential Report - Date of generation 19-04-2018   |                
   ------------------------------------------------------------                
   | Element: Sn Ionic charge: 14.00 Level of theory: PBE     |                
   | Atomic Solver: ZORA (scalar)                             |                
   |                                                          |                
   |               Reference Electronic Structure             |                
   |         Orbital         Occupation         Energy        |                
   |            4d             10.000           -0.950        |                
   |            5s              2.000           -0.388        |                
   |            5p              2.000           -0.136        |                
   |                                                          |                
   |                 Pseudopotential Definition               |                
   |        Beta     l      e      Rc     scheme   norm       |                
   |          1      0   -0.388   2.199     qc      0         |                
   |          2      0    0.250   2.199     qc      0         |                
   |          3      1   -0.136   2.199     qc      0         |                
   |          4      1    0.250   2.199     qc      0         |                
   |          5      2   -0.950   2.199     qc      0         |                
   |          6      2    0.250   2.199     qc      0         |                
   |         loc     3    0.000   2.199     pn      0         |                
   |                                                          |                
   | Augmentation charge Rinner = 1.537                       |                
   | Partial core correction Rc = 1.537                       |                
   ------------------------------------------------------------                
   | "3|2.2|7|8|9|50:51:42"                                   |                
   ------------------------------------------------------------                
   |      Author: Chris J. Pickard, Cambridge University      |                
   ============================================================                
 
 Atomic calculation performed for La:
 1s2 2s2 2p6 3s2 3p6 3d10 4s2 4p6 4d10 5s2 5p6 5d1 6s2
 
 Converged in 56 iterations to an ae energy of -230121.495 eV
 
 
 Atomic calculation performed for La:
 1s2 2s2 2p6 3s2 3p6 3d10 4s2 4p6 4d10 5s2 5p6 5d1 6s2
 
 Exceeded max iterations: converged to 0.000000907 eV
 
 Warning: ion_atom_descreen_psp: negative charge density encountered
   ============================================================                
   | Pseudopotential Report - Date of generation 19-04-2018   |                
   ------------------------------------------------------------                
   | Element: La Ionic charge: 11.00 Level of theory: PBE     |                
   | Atomic Solver: ZORA (scalar)                             |                
   |                                                          |                
   |               Reference Electronic Structure             |                
   |         Orbital         Occupation         Energy        |                
   |            5s              2.000           -1.430        |                
   |            5p              6.000           -0.823        |                
   |            6s              2.000           -0.135        |                
   |            5d              1.000           -0.114        |                
   |                                                          |                
   |                 Pseudopotential Definition               |                
   |        Beta     l      e      Rc     scheme   norm       |                
   |          1      0   -1.430   2.298     qc      0         |                
   |          2      0   -0.135   2.298     qc      0         |                
   |          3      0    0.250   2.298     qc      0         |                
   |          4      1   -0.823   2.298     qc      0         |                
   |          5      1    0.250   2.298     qc      0         |                
   |          6      2   -0.114   2.298     qc      0         |                
   |          7      2    0.250   2.298     qc      0         |                
   |         loc     2    0.000   2.298     pn      0         |                
   |                                                          |                
   | Augmentation charge Rinner = 1.606                       |                
   | Partial core correction Rc = 1.606                       |                
   ------------------------------------------------------------                
   | "2|2.3|5|6|7|50U:60:51:52(qc=4.5)"                       |                
   ------------------------------------------------------------                
   |      Author: Chris J. Pickard, Cambridge University      |                
   ============================================================                
 
 Pseudo atomic calculation performed for O 2s2 2p4
 
 Converged in 39 iterations to a total energy of -432.6554 eV
 
 
 Pseudo atomic calculation performed for Zr 4s2 4p6 4d2 5s2
 
 Converged in 38 iterations to a total energy of -1285.4931 eV
 
 
 Pseudo atomic calculation performed for Sn 4d10 5s2 5p2
 
 Converged in 48 iterations to a total energy of -2044.5414 eV
 
 
 Pseudo atomic calculation performed for La 5s2 5p6 5d1 6s2
 
 Converged in 34 iterations to a total energy of -968.0372 eV
 
 Calculation parallelised over 56 processes.
 Data is distributed by G-vector(4-way) and k-point(14-way)

 ************************************ Title ************************************
 nmr testing

 ***************************** General Parameters ******************************
  
 output verbosity                               : normal  (1)
 write checkpoint data to                       : 065.check
 type of calculation                            : Magnetic Resonance
 stress calculation                             : on
 density difference calculation                 : off
 electron localisation func (ELF) calculation   : off
 Hirshfeld analysis                             : off
 unlimited duration calculation
 timing information                             : on
 memory usage estimate                          : on
 write final potential to formatted file        : off
 write final density to formatted file          : off
 write structure in CIF formatted file          : on
 write structure in CELL formatted file         : on
 write BibTeX reference list                    : on
 write OTFG pseudopotential files               : on
 checkpoint writing                             : both castep_bin and check files
  
 output         length unit                     : A
 output           mass unit                     : amu
 output           time unit                     : ps
 output         charge unit                     : e
 output           spin unit                     : hbar/2
 output         energy unit                     : eV
 output          force unit                     : eV/A
 output       velocity unit                     : A/ps
 output       pressure unit                     : GPa
 output     inv_length unit                     : 1/A
 output      frequency unit                     : cm-1
 output force constant unit                     : eV/A**2
 output         volume unit                     : A**3
 output   IR intensity unit                     : (D/A)**2/amu
 output         dipole unit                     : D
 output         efield unit                     : eV/A/e
 output        entropy unit                     : J/mol/K
  
 wavefunctions paging                           : none
 random number generator seed                   : randomised (142634793)
 data distribution                              : optimal for this architecture
 optimization strategy                          : maximize speed(+++)

 *********************** Exchange-Correlation Parameters ***********************
  
 using functional                               : Perdew Burke Ernzerhof
 relativistic treatment                         : ZORA
 DFT+D: Semi-empirical dispersion correction    : off

 ************************* Pseudopotential Parameters **************************
  
 pseudopotential representation                 : reciprocal space
 <beta|phi> representation                      : reciprocal space
 spin-orbit coupling                            : off

 **************************** Basis Set Parameters *****************************
  
 plane wave basis set cut-off                   :   816.3416   eV
 size of standard grid                          :     1.7500
 size of   fine   gmax                          :    25.6161   1/A
 finite basis set correction                    : automatic
 number of sample energies                      :          3
           sample  spacing                      :     5.0000   eV

 **************************** Electronic Parameters ****************************
  
 number of  electrons                           :  724.0    
 net charge of system                           :  0.000    
 treating system as non-spin-polarized
 number of bands                                :        434

 ********************* Electronic Minimization Parameters **********************
  
 Method: Treating system as metallic with density mixing treatment of electrons,
         and number of  SD  steps               :          1
         and number of  CG  steps               :          4
  
 total energy / atom convergence tol.           : 0.1000E-08   eV
 eigen-energy convergence tolerance             : 0.2431E-09   eV
 max force / atom convergence tol.              : ignored
 convergence tolerance window                   :          3   cycles
 max. number of SCF cycles                      :         50
 number of fixed-spin iterations                :         10
 smearing scheme                                : Gaussian
 smearing width                                 : 0.2000       eV
 Fermi energy convergence tolerance             : 0.2721E-13   eV
 periodic dipole correction                     : NONE

 ************************** Density Mixing Parameters **************************
  
 density-mixing scheme                          : Broyden
 max. length of mixing history                  :         20
 charge density mixing amplitude                : 0.8000    
 cut-off energy for mixing                      :  816.3       eV

 *********************** Population Analysis Parameters ************************
  
 Population analysis with cutoff                :  3.000       A

 ************************ Magnetic Resonance Parameters ************************
  
 Magnetic Resonance Property                    : Chemical Shielding + EFG
 Position Operator Method                       : crystal
 max. number of MagRes CG steps                 :        250
 convergence tolerance window                   :          2   cycles
 energy convergence tolerance                   : 0.1000E-11   eV
 band convergence tolerance                     : 0.1000E-08   eV

 *******************************************************************************
  
 
                           -------------------------------
                                      Unit Cell
                           -------------------------------
        Real Lattice(A)                      Reciprocal Lattice(1/A)
  10.8999633  -0.0000068  -0.0000068        0.5764410   0.0000004   0.0000004
  -0.0000068  10.8916685  -0.0030314        0.0000004   0.5768800   0.0001606
  -0.0000068  -0.0030314  10.8916685        0.0000004   0.0001606   0.5768800
 
                       Lattice parameters(A)       Cell Angles
                    a =   10.899963          alpha =   90.031893
                    b =   10.891669          beta  =   90.000071
                    c =   10.891669          gamma =   90.000071
 
                       Current cell volume = 1293.045573       A**3
 
                           -------------------------------
                                     Cell Contents
                           -------------------------------
                         Total number of ions in cell =   88
                      Total number of species in cell =    4
                        Max number of any one species =   56
 
            xxxxxxxxxxxxxxxxxxxxxxxxxxxxxxxxxxxxxxxxxxxxxxxxxxxxxxxxxxxx
            x  Element    Atom        Fractional coordinates of atoms  x
            x            Number           u          v          w      x
            x----------------------------------------------------------x
            x  O            1         0.125296   0.125026   0.125026   x 
            x  O            2         0.624508   0.125017   0.625017   x 
            x  O            3         0.125692   0.625029   0.625029   x 
            x  O            4         0.624508   0.625017   0.125017   x 
            x  O            5         0.875003   0.375085   0.375085   x 
            x  O            6         0.875015   0.874929   0.874929   x 
            x  O            7         0.374777   0.375051   0.874991   x 
            x  O            8         0.374777   0.874991   0.375051   x 
            x  O            9         0.419829   0.125031   0.125031   x 
            x  O           10         0.330429   0.124990   0.625009   x 
            x  O           11         0.831428   0.625023   0.625023   x 
            x  O           12         0.918979   0.625007   0.125011   x 
            x  O           13         0.124470   0.421109   0.123464   x 
            x  O           14         0.625626   0.330453   0.124448   x 
            x  O           15         0.626252   0.828845   0.624218   x 
            x  O           16         0.124017   0.920885   0.623876   x 
            x  O           17         0.124470   0.123464   0.421109   x 
            x  O           18         0.124034   0.626135   0.329134   x 
            x  O           19         0.626252   0.624218   0.828845   x 
            x  O           20         0.625637   0.125603   0.919598   x 
            x  O           21         0.875033   0.669385   0.375040   x 
            x  O           22         0.875040   0.580643   0.874988   x 
            x  O           23         0.375717   0.079302   0.876337   x 
            x  O           24         0.375743   0.170717   0.373668   x 
            x  O           25         0.170660   0.375127   0.375127   x 
            x  O           26         0.079980   0.875010   0.375051   x 
            x  O           27         0.578186   0.875962   0.875962   x 
            x  O           28         0.669608   0.374720   0.875319   x 
            x  O           29         0.874509   0.375039   0.080768   x 
            x  O           30         0.375743   0.373668   0.170717   x 
            x  O           31         0.374861   0.874826   0.669580   x 
            x  O           32         0.875040   0.874988   0.580643   x 
            x  O           33         0.669608   0.875319   0.374720   x 
            x  O           34         0.079980   0.375051   0.875010   x 
            x  O           35         0.374861   0.669580   0.874826   x 
            x  O           36         0.874509   0.080768   0.375039   x 
            x  O           37         0.875033   0.375040   0.669385   x 
            x  O           38         0.375717   0.876337   0.079302   x 
            x  O           39         0.124034   0.329134   0.626135   x 
            x  O           40         0.625637   0.919598   0.125603   x 
            x  O           41         0.918979   0.125011   0.625007   x 
            x  O           42         0.330429   0.625009   0.124990   x 
            x  O           43         0.124017   0.623876   0.920885   x 
            x  O           44         0.625626   0.124448   0.330453   x 
            x  O           45         0.419303   0.625000   0.625000   x 
            x  O           46         0.831169   0.125022   0.125022   x 
            x  O           47         0.124492   0.126528   0.828911   x 
            x  O           48         0.626249   0.625800   0.421193   x 
            x  O           49         0.874503   0.169259   0.874992   x 
            x  O           50         0.374851   0.580412   0.375163   x 
            x  O           51         0.170643   0.874867   0.874867   x 
            x  O           52         0.578193   0.374025   0.374025   x 
            x  O           53         0.874503   0.874992   0.169259   x 
            x  O           54         0.374851   0.375163   0.580412   x 
            x  O           55         0.124492   0.828911   0.126528   x 
            x  O           56         0.626249   0.421193   0.625800   x 
            x  Zr           1         0.500057   0.500248   0.500248   x 
            x  Zr           2         0.249913   0.749565   0.000356   x 
            x  Zr           3         0.249913   0.000356   0.749565   x 
            x  Zr           4         0.249880   0.249353   0.500260   x 
            x  Zr           5         0.249880   0.500260   0.249353   x 
            x  Zr           6         0.500147   0.749401   0.749401   x 
            x  Sn           1         0.750169   0.999978   0.250038   x 
            x  Sn           2         0.998847   0.250898   0.750817   x 
            x  Sn           3         0.750169   0.250038   0.999978   x 
            x  Sn           4         0.998847   0.750817   0.250898   x 
            x  Sn           5         0.501637   0.001623   0.001623   x 
            x  Sn           6         0.751250   0.499200   0.750809   x 
            x  Sn           7         0.751250   0.750809   0.499200   x 
            x  Sn           8         0.998792   0.499207   0.999118   x 
            x  Sn           9         0.501668   0.248359   0.248359   x 
            x  Sn          10         0.998792   0.999118   0.499207   x 
            x  La           1         0.000593   0.999677   0.999677   x 
            x  La           2         0.749659   0.250259   0.500089   x 
            x  La           3         0.250540   0.500168   0.749795   x 
            x  La           4         0.499432   0.749569   0.250122   x 
            x  La           5         0.250540   0.749795   0.500168   x 
            x  La           6         0.749659   0.500089   0.250259   x 
            x  La           7         0.499432   0.250122   0.749569   x 
            x  La           8         0.000735   0.499783   0.499783   x 
            x  La           9         0.749637   0.749974   0.999771   x 
            x  La          10         0.249849   0.999854   0.250103   x 
            x  La          11         0.249849   0.250103   0.999854   x 
            x  La          12         0.749637   0.999771   0.749974   x 
            x  La          13         0.499457   0.999904   0.500465   x 
            x  La          14         0.000689   0.750235   0.750235   x 
            x  La          15         0.000579   0.250360   0.250360   x 
            x  La          16         0.499457   0.500465   0.999904   x 
            xxxxxxxxxxxxxxxxxxxxxxxxxxxxxxxxxxxxxxxxxxxxxxxxxxxxxxxxxxxx
 
 
                         No user defined ionic velocities
 
                           -------------------------------
                                   Details of Species
                           -------------------------------
 
                               Mass of species in AMU
                                    O   15.9994000
                                    Zr   91.2240000
                                    Sn  118.7100000
                                    La  138.9055000
 
                          Electric Quadrupole Moment (Barn)
                                    O   -0.0255800 Isotope 17
                                    Zr   -0.1760000 Isotope 91
                                    Sn    1.0000000 No Isotope Defined
                                    La    0.2000000 Isotope139
 
                          Files used for pseudopotentials:
                                    O 2|1.1|15|18|20|20:21(qc=7)
                                    Zr 3|2.1|7|8|9|40U:50:41:42
                                    Sn 3|2.2|7|8|9|50:51:42
                                    La 2|2.3|5|6|7|50U:60:51:52(qc=4.5)
 
                           -------------------------------
                              k-Points For BZ Sampling
                           -------------------------------
                       MP grid size for SCF calculation is  3  3  3
                            with an offset of   0.000  0.000  0.000
                       Number of kpoints used =            14
 
                           -------------------------------
                               Symmetry and Constraints
                           -------------------------------
 
                      Maximum deviation from symmetry =  0.00000         ANG
 
         There are no symmetry operations specified or generated for this cell
                      Number of ionic constraints     =           3
                      Point group of crystal =     1: C1, 1, 1
                      Space group of crystal =     8: Cm, C -2y
 
 
                         Centre of mass is constrained
             Set iprint > 1 for details of linear ionic constraints
 
                         Number of cell constraints= 0
                         Cell constraints are:  1 2 3 4 5 6
 
                         External pressure/stress (GPa)
                          0.00000   0.00000   0.00000
                                    0.00000   0.00000
                                              0.00000
  
+---------------- MEMORY AND SCRATCH DISK ESTIMATES PER PROCESS --------------+
|                                                     Memory          Disk    |
| Baseline code, static data and system overhead      322.0 MB         0.0 MB |
| BLAS internal memory storage                          0.0 MB         0.0 MB |
| Model and support data                             1318.3 MB         0.0 MB |
| Electronic energy minimisation requirements         382.6 MB         0.0 MB |
| Force calculation requirements                       24.1 MB         0.0 MB |
| Stress calculation requirements                      28.3 MB         0.0 MB |
|                                               ----------------------------- |
| Approx. total storage required per process         2022.8 MB         0.0 MB |
|                                                                             |
| Requirements will fluctuate during execution and may exceed these estimates |
+-----------------------------------------------------------------------------+
Calculating finite basis set correction with  3 cut-off energies.
Calculating total energy with cut-off of  806.342eV.
------------------------------------------------------------------------ <-- SCF
SCF loop      Energy           Fermi           Energy gain       Timer   <-- SCF
                               energy          per atom          (sec)   <-- SCF
------------------------------------------------------------------------ <-- SCF
Initial  -5.81304198E+004  0.00000000E+000                        76.03  <-- SCF
      1  -6.60328912E+004  7.42621151E+000   8.98008110E+001     217.86  <-- SCF
      2  -6.85832498E+004  6.65614225E+000   2.89813475E+001     311.42  <-- SCF
      3  -6.86687937E+004  6.13563291E+000   9.72090569E-001     413.55  <-- SCF
      4  -6.86608367E+004  7.53755218E+000  -9.04205451E-002     542.90  <-- SCF
      5  -6.85624396E+004  6.71377304E+000  -1.11814944E+000     670.09  <-- SCF
      6  -6.85635835E+004  6.59030787E+000   1.29995477E-002     831.15  <-- SCF
      7  -6.85631986E+004  6.67840634E+000  -4.37441151E-003     971.21  <-- SCF
      8  -6.85633011E+004  6.68162961E+000   1.16538708E-003    1154.48  <-- SCF
      9  -6.85633234E+004  6.68066329E+000   2.52722022E-004    1300.65  <-- SCF
     10  -6.85633224E+004  6.67895825E+000  -1.06421298E-005    1438.13  <-- SCF
     11  -6.85633221E+004  6.67978382E+000  -4.41648855E-006    1577.72  <-- SCF
     12  -6.85633222E+004  6.67940574E+000   1.59542860E-006    1726.77  <-- SCF
     13  -6.85633222E+004  6.67884971E+000  -3.87614989E-007    1864.57  <-- SCF
     14  -6.85633221E+004  6.67850106E+000  -5.41673965E-007    1996.78  <-- SCF
     15  -6.85633221E+004  6.67798331E+000  -1.50631153E-007    2143.10  <-- SCF
     16  -6.85633221E+004  6.67778543E+000   6.36292403E-010    2271.56  <-- SCF
     17  -6.85633221E+004  6.67773113E+000  -6.90739346E-009    2389.74  <-- SCF
     18  -6.85633221E+004  6.67766983E+000   1.32911288E-009    2491.76  <-- SCF
     19  -6.85633221E+004  6.67763885E+000   5.14096138E-010    2583.89  <-- SCF
     20  -6.85633221E+004  6.67763817E+000   5.48406712E-011    2673.81  <-- SCF
------------------------------------------------------------------------ <-- SCF
 
Final energy, E             =  -68563.32209982     eV
Final free energy (E-TS)    =  -68563.32209982     eV
(energies not corrected for finite basis set)
 
NB est. 0K energy (E-0.5TS)      =  -68563.32209982     eV
 
Calculating total energy with cut-off of  811.342eV.
------------------------------------------------------------------------ <-- SCF
SCF loop      Energy           Fermi           Energy gain       Timer   <-- SCF
                               energy          per atom          (sec)   <-- SCF
------------------------------------------------------------------------ <-- SCF
Initial  -6.85633221E+004  0.00000000E+000                      2709.13  <-- SCF
      1  -6.85633246E+004  6.67763864E+000   2.85157064E-005    2820.02  <-- SCF
      2  -6.85633246E+004  6.67763864E+000   1.84489642E-010    2908.43  <-- SCF
      3  -6.85633246E+004  6.67763097E+000   1.66972970E-008    2995.23  <-- SCF
      4  -6.85633246E+004  6.67764019E+000   5.75686430E-010    3082.11  <-- SCF
      5  -6.85633246E+004  6.67763618E+000  -8.42296462E-011    3168.75  <-- SCF
------------------------------------------------------------------------ <-- SCF
 
Final energy, E             =  -68563.32461073     eV
Final free energy (E-TS)    =  -68563.32461073     eV
(energies not corrected for finite basis set)
 
NB est. 0K energy (E-0.5TS)      =  -68563.32461073     eV
 
Calculating total energy with cut-off of  816.342eV.
------------------------------------------------------------------------ <-- SCF
SCF loop      Energy           Fermi           Energy gain       Timer   <-- SCF
                               energy          per atom          (sec)   <-- SCF
------------------------------------------------------------------------ <-- SCF
Initial  -6.85633246E+004  0.00000000E+000                      3204.37  <-- SCF
      1  -6.85633276E+004  6.67763403E+000   3.41364290E-005    3313.59  <-- SCF
      2  -6.85633276E+004  6.67763403E+000   2.06847762E-010    3400.77  <-- SCF
      3  -6.85633276E+004  6.67762945E+000   2.11250484E-008    3487.54  <-- SCF
      4  -6.85633276E+004  6.67763495E+000   6.79602471E-010    3574.62  <-- SCF
      5  -6.85633276E+004  6.67763142E+000  -1.68740527E-012    3661.85  <-- SCF
------------------------------------------------------------------------ <-- SCF
 
Final energy, E             =  -68563.32761667     eV
Final free energy (E-TS)    =  -68563.32761667     eV
(energies not corrected for finite basis set)
 
NB est. 0K energy (E-0.5TS)      =  -68563.32761667     eV
 
 For future reference: finite basis dEtot/dlog(Ecut) =      -0.441311eV
 Total energy corrected for finite basis set =  -68563.327609 eV
 
  =====================================================================
  +       Calculation of Nuclear Magnetic Resonance Parameters        +
  + ================================================================= +
 
  Starting Calculation of Electric Field Gradient Tensors         |<-- EFG
  +---------------- MEMORY AND SCRATCH DISK ESTIMATES PER PROCESS --------------+
  |                                                     Memory          Disk    |
  | Model and support data                             1316.0 MB         0.0 MB |
  | NMR EFG calculation requirements                    368.3 MB         0.0 MB |
  |                                               ----------------------------- |
  | Approx. total storage required per process         1684.3 MB         0.0 MB |
  |                                                                             |
  | Requirements will fluctuate during execution and may exceed these estimates |
  +-----------------------------------------------------------------------------+
  Total Time for EFG Tensors                     380.12 sec       |<-- EFG
 
  Starting Calculation of Chemical Shielding Tensors              |<-- NMR
  +---------------- MEMORY AND SCRATCH DISK ESTIMATES PER PROCESS --------------+
  |                                                     Memory          Disk    |
  | Model and support data                             1316.0 MB         0.0 MB |
  | NMR chemical shift calculation requirements         565.6 MB         0.0 MB |
  |                                               ----------------------------- |
  | Approx. total storage required per process         1881.6 MB         0.0 MB |
  |                                                                             |
  | Requirements will fluctuate during execution and may exceed these estimates |
  +-----------------------------------------------------------------------------+
  Starting k-point:   1 of   1                                    |<-- NMR
  Total Time for step 1 of 6:                   3425.07 sec       |<-- NMR
  Total Time for step 2 of 6:                   3421.13 sec       |<-- NMR
  Total Time for step 3 of 6:                   3411.03 sec       |<-- NMR
  Total Time for step 4 of 6:                   3396.66 sec       |<-- NMR
  Total Time for step 5 of 6:                   3392.22 sec       |<-- NMR
  Total Time for step 6 of 6:                   3397.86 sec       |<-- NMR
  Total Time for Chemical Shielding Tensors    29863.92 sec       |<-- NMR
 
  ========================================================================
  |           Chemical Shielding and Electric Field Gradient Tensors     |
  |----------------------------------------------------------------------|
  |     Nucleus                Shielding tensor             EFG Tensor   |
  |  Species       Ion    Iso(ppm)   Aniso(ppm)  Asym    Cq(MHz)    Eta  |
  |    O           1     -320.00       6.31      0.82  -8.922E-02   0.70 |
  |    O           2     -319.81      -6.01      0.69  -4.545E-02   0.62 |
  |    O           3     -321.44       3.51      0.15  -9.096E-02   0.58 |
  |    O           4     -319.81      -6.01      0.69  -4.545E-02   0.62 |
  |    O           5     -318.27       9.67      0.68  -5.099E-02   0.14 |
  |    O           6     -318.29       9.39      0.81  -5.090E-02   0.10 |
  |    O           7     -318.82       4.11      0.92  -4.415E-02   0.74 |
  |    O           8     -318.82       4.11      0.92  -4.415E-02   0.74 |
  |    O           9      -17.07      38.16      0.23   3.994E+00   0.79 |
  |    O          10     -162.11     155.35      0.86   1.084E+00   0.74 |
  |    O          11       -5.68     -67.38      0.89   3.716E+00   0.96 |
  |    O          12       -2.43     -69.02      0.87   3.733E+00   0.97 |
  |    O          13      -85.89      91.10      0.19  -3.162E+00   0.07 |
  |    O          14      -18.29      37.49      0.93   3.869E+00   0.88 |
  |    O          15      -85.54      88.34      0.05  -3.183E+00   0.07 |
  |    O          16      -88.59      80.58      0.15  -3.223E+00   0.09 |
  |    O          17      -85.89      91.10      0.19  -3.162E+00   0.07 |
  |    O          18      -88.33      78.44      0.15  -3.227E+00   0.09 |
  |    O          19      -85.54      88.33      0.05  -3.183E+00   0.07 |
  |    O          20      -18.40      37.47      0.93   3.868E+00   0.88 |
  |    O          21      -15.25     -38.24      0.88   3.895E+00   0.89 |
  |    O          22      -15.07     -38.22      0.87   3.896E+00   0.88 |
  |    O          23      -84.68      83.63      0.20  -3.147E+00   0.07 |
  |    O          24      -84.89      85.78      0.19  -3.144E+00   0.07 |
  |    O          25     -158.58     142.94      0.79   1.104E+00   0.60 |
  |    O          26      -23.06      41.09      0.25   3.944E+00   0.81 |
  |    O          27      -78.99      84.47      0.25  -3.123E+00   0.05 |
  |    O          28      -22.31      39.05      0.93   3.850E+00   0.87 |
  |    O          29      -17.40     -42.15      0.65   3.835E+00   0.92 |
  |    O          30      -84.89      85.78      0.19  -3.144E+00   0.07 |
  |    O          31     -161.22     153.77      0.80   1.016E+00   0.78 |
  |    O          32      -15.07     -38.22      0.87   3.896E+00   0.88 |
  |    O          33      -22.31      39.05      0.93   3.850E+00   0.87 |
  |    O          34      -23.06      41.08      0.25   3.944E+00   0.81 |
  |    O          35     -161.22     153.77      0.80   1.016E+00   0.78 |
  |    O          36      -17.40     -42.15      0.65   3.835E+00   0.92 |
  |    O          37      -15.25     -38.25      0.88   3.895E+00   0.89 |
  |    O          38      -84.68      83.63      0.20  -3.147E+00   0.07 |
  |    O          39      -88.33      78.45      0.15  -3.227E+00   0.09 |
  |    O          40      -18.40      37.48      0.93   3.868E+00   0.88 |
  |    O          41       -2.43     -69.02      0.87   3.733E+00   0.97 |
  |    O          42     -162.11     155.35      0.86   1.084E+00   0.74 |
  |    O          43      -88.59      80.58      0.15  -3.223E+00   0.09 |
  |    O          44      -18.29      37.50      0.93   3.869E+00   0.88 |
  |    O          45     -165.47     159.51      0.83   1.003E+00   0.95 |
  |    O          46      -20.39     -44.72      0.43   3.769E+00   0.95 |
  |    O          47      -85.50      88.28      0.19  -3.167E+00   0.07 |
  |    O          48      -85.20      86.87      0.05  -3.185E+00   0.07 |
  |    O          49      -17.53     -42.18      0.65   3.835E+00   0.92 |
  |    O          50     -161.32     152.58      0.81   1.014E+00   0.78 |
  |    O          51     -158.54     143.47      0.79   1.106E+00   0.59 |
  |    O          52      -79.55      88.33      0.24  -3.120E+00   0.04 |
  |    O          53      -17.53     -42.18      0.65   3.835E+00   0.92 |
  |    O          54     -161.32     152.59      0.81   1.014E+00   0.78 |
  |    O          55      -85.50      88.28      0.19  -3.167E+00   0.07 |
  |    O          56      -85.20      86.86      0.05  -3.185E+00   0.07 |
  |    Zr          1     1632.25    -125.71      0.18  -3.679E+01   0.04 |
  |    Zr          2     1630.39    -122.30      0.10  -3.685E+01   0.16 |
  |    Zr          3     1630.39    -122.31      0.10  -3.685E+01   0.16 |
  |    Zr          4     1630.27    -122.08      0.10  -3.681E+01   0.17 |
  |    Zr          5     1630.27    -122.09      0.10  -3.681E+01   0.17 |
  |    Zr          6     1632.12    -125.61      0.16  -3.688E+01   0.06 |
  |    Sn          1     3235.44     -63.37      0.08   1.154E+02   0.08 |
  |    Sn          2     3245.79     -60.60      0.05   1.209E+02   0.10 |
  |    Sn          3     3235.44     -63.36      0.08   1.154E+02   0.08 |
  |    Sn          4     3245.79     -60.60      0.05   1.209E+02   0.10 |
  |    Sn          5     3238.97     -46.06      0.26   1.216E+02   0.16 |
  |    Sn          6     3246.53     -63.92      0.15   1.218E+02   0.22 |
  |    Sn          7     3246.53     -63.91      0.15   1.218E+02   0.22 |
  |    Sn          8     3245.77     -60.58      0.03   1.210E+02   0.10 |
  |    Sn          9     3238.64     -46.73      0.27   1.220E+02   0.16 |
  |    Sn         10     3245.77     -60.58      0.03   1.210E+02   0.10 |
  |    La          1     4614.61     511.61      0.07  -7.991E+01   0.07 |
  |    La          2     4556.76     389.59      0.05  -7.601E+01   0.13 |
  |    La          3     4694.55     758.38      0.05  -8.373E+01   0.10 |
  |    La          4     4653.30     631.86      0.00  -8.213E+01   0.05 |
  |    La          5     4694.55     758.39      0.05  -8.373E+01   0.10 |
  |    La          6     4556.76     389.59      0.05  -7.601E+01   0.13 |
  |    La          7     4653.30     631.86      0.00  -8.213E+01   0.05 |
  |    La          8     4606.20     510.95      0.08  -7.830E+01   0.08 |
  |    La          9     4556.65     388.51      0.05  -7.596E+01   0.13 |
  |    La         10     4599.09     555.74      0.10  -7.930E+01   0.21 |
  |    La         11     4599.09     555.75      0.10  -7.930E+01   0.21 |
  |    La         12     4556.65     388.50      0.05  -7.596E+01   0.13 |
  |    La         13     4653.58     633.28      0.01  -8.220E+01   0.05 |
  |    La         14     4606.61     512.93      0.08  -7.847E+01   0.08 |
  |    La         15     4614.93     513.58      0.06  -8.006E+01   0.07 |
  |    La         16     4653.58     633.28      0.01  -8.220E+01   0.05 |
  ========================================================================
 
 *********************** Forces ***********************
 *                                                    *
 *            Cartesian components (eV/A)             *
 * -------------------------------------------------- *
 *                   x            y            z      *
 *                                                    *
 * O         1     -0.00435      0.00202      0.00202 *
 * O         2     -0.00053      0.00172      0.00153 *
 * O         3     -0.00315      0.00084      0.00084 *
 * O         4     -0.00053      0.00153      0.00172 *
 * O         5      0.00265      0.00039      0.00039 *
 * O         6      0.00286      0.00362      0.00362 *
 * O         7      0.00600      0.00246      0.00103 *
 * O         8      0.00600      0.00103      0.00246 *
 * O         9      0.00043     -0.00142     -0.00142 *
 * O        10     -0.00593     -0.00017     -0.00231 *
 * O        11     -0.00219      0.00177      0.00177 *
 * O        12      0.00284      0.00088      0.00206 *
 * O        13     -0.00613     -0.00605     -0.00724 *
 * O        14     -0.00127      0.00535     -0.00098 *
 * O        15      0.01333      0.00957     -0.00852 *
 * O        16     -0.00598      0.00024     -0.00781 *
 * O        17     -0.00613     -0.00724     -0.00605 *
 * O        18     -0.00311      0.00567      0.00060 *
 * O        19      0.01333     -0.00852      0.00957 *
 * O        20     -0.00367      0.00298     -0.00199 *
 * O        21     -0.00038      0.00098      0.00280 *
 * O        22     -0.00361      0.00210     -0.00312 *
 * O        23      0.00312      0.00956      0.00788 *
 * O        24      0.00465     -0.00688     -0.00705 *
 * O        25      0.00135     -0.00212     -0.00212 *
 * O        26      0.00337     -0.00220      0.00293 *
 * O        27      0.01022      0.00834      0.00834 *
 * O        28     -0.00593     -0.00078      0.00422 *
 * O        29     -0.00422     -0.00222      0.00399 *
 * O        30      0.00465     -0.00705     -0.00688 *
 * O        31     -0.00203     -0.00167      0.00741 *
 * O        32     -0.00361     -0.00312      0.00210 *
 * O        33     -0.00593      0.00422     -0.00078 *
 * O        34      0.00337      0.00293     -0.00220 *
 * O        35     -0.00203      0.00741     -0.00167 *
 * O        36     -0.00422      0.00399     -0.00222 *
 * O        37     -0.00038      0.00280      0.00098 *
 * O        38      0.00312      0.00788      0.00956 *
 * O        39     -0.00311      0.00060      0.00567 *
 * O        40     -0.00367     -0.00199      0.00298 *
 * O        41      0.00284      0.00206      0.00088 *
 * O        42     -0.00593     -0.00231     -0.00017 *
 * O        43     -0.00598     -0.00781      0.00024 *
 * O        44     -0.00127     -0.00098      0.00535 *
 * O        45      0.02651     -0.00555     -0.00555 *
 * O        46      0.00130      0.00199      0.00199 *
 * O        47     -0.00451      0.00708      0.00671 *
 * O        48      0.00932      0.00484     -0.00737 *
 * O        49     -0.00247     -0.00026      0.00279 *
 * O        50     -0.00453     -0.01080     -0.00385 *
 * O        51      0.00004     -0.00051     -0.00051 *
 * O        52      0.01154     -0.01237     -0.01237 *
 * O        53     -0.00247      0.00279     -0.00026 *
 * O        54     -0.00453     -0.00385     -0.01080 *
 * O        55     -0.00451      0.00671      0.00708 *
 * O        56      0.00932     -0.00737      0.00484 *
 * Zr        1     -0.00876      0.00501      0.00501 *
 * Zr        2      0.00029     -0.00403     -0.00456 *
 * Zr        3      0.00029     -0.00456     -0.00403 *
 * Zr        4     -0.00300     -0.00383      0.00366 *
 * Zr        5     -0.00300      0.00366     -0.00383 *
 * Zr        6     -0.00825     -0.01220     -0.01220 *
 * Sn        1      0.00232      0.00324      0.00075 *
 * Sn        2     -0.00149      0.00290      0.00326 *
 * Sn        3      0.00232      0.00075      0.00324 *
 * Sn        4     -0.00149      0.00326      0.00290 *
 * Sn        5     -0.00421      0.00166      0.00166 *
 * Sn        6      0.00684     -0.00132      0.00182 *
 * Sn        7      0.00684      0.00183     -0.00132 *
 * Sn        8     -0.00495      0.00030     -0.00400 *
 * Sn        9     -0.00153     -0.00755     -0.00755 *
 * Sn       10     -0.00495     -0.00400      0.00030 *
 * La        1     -0.00212      0.00379      0.00379 *
 * La        2      0.00374     -0.00074      0.00752 *
 * La        3     -0.02331     -0.00916      0.00519 *
 * La        4      0.00709      0.01799      0.00275 *
 * La        5     -0.02331      0.00519     -0.00916 *
 * La        6      0.00374      0.00752     -0.00074 *
 * La        7      0.00709      0.00275      0.01798 *
 * La        8      0.00175      0.01138      0.01138 *
 * La        9     -0.00099      0.00077      0.00188 *
 * La       10      0.00731     -0.00677     -0.00151 *
 * La       11      0.00731     -0.00151     -0.00677 *
 * La       12     -0.00099      0.00188      0.00077 *
 * La       13      0.00885     -0.00224     -0.01542 *
 * La       14     -0.00117     -0.00997     -0.00997 *
 * La       15     -0.00492     -0.00372     -0.00372 *
 * La       16      0.00885     -0.01542     -0.00224 *
 *                                                    *
 ******************************************************
 
 ***************** Stress Tensor *****************
 *                                               *
 *          Cartesian components (GPa)           *
 * --------------------------------------------- *
 *             x             y             z     *
 *                                               *
 *  x      0.032667     -0.000015     -0.000015  *
 *  y     -0.000015     -0.019818      0.015284  *
 *  z     -0.000015      0.015284     -0.019818  *
 *                                               *
 *  Pressure:    0.0023                          *
 *                                               *
 *************************************************
 
 Pseudo atomic calculation performed for O 2s2 2p4
 
 Converged in 39 iterations to a total energy of -432.6554 eV
 
 
 Pseudo atomic calculation performed for Zr 4s2 4p6 4d2 5s2
 
 Converged in 38 iterations to a total energy of -1285.4931 eV
 
 
 Pseudo atomic calculation performed for Sn 4d10 5s2 5p2
 
 Converged in 48 iterations to a total energy of -2044.5414 eV
 
 
 Pseudo atomic calculation performed for La 5s2 5p6 5d1 6s2
 
 Converged in 34 iterations to a total energy of -968.0372 eV
 
Charge spilling parameter for spin component 1 = 0.25%
 
     Atomic Populations (Mulliken)
     -----------------------------
Species   Ion     s      p      d      f     Total  Charge (e)
==============================================================
  O        1     1.87   5.00   0.00   0.00   6.87    -0.87
  O        2     1.87   5.00   0.00   0.00   6.87    -0.87
  O        3     1.87   5.00   0.00   0.00   6.87    -0.87
  O        4     1.87   5.00   0.00   0.00   6.87    -0.87
  O        5     1.87   5.00   0.00   0.00   6.87    -0.87
  O        6     1.87   5.00   0.00   0.00   6.87    -0.87
  O        7     1.87   5.00   0.00   0.00   6.87    -0.87
  O        8     1.87   5.00   0.00   0.00   6.87    -0.87
  O        9     1.88   5.03   0.00   0.00   6.91    -0.91
  O       10     1.86   4.95   0.00   0.00   6.80    -0.80
  O       11     1.88   5.02   0.00   0.00   6.91    -0.91
  O       12     1.88   5.02   0.00   0.00   6.91    -0.91
  O       13     1.87   4.99   0.00   0.00   6.86    -0.86
  O       14     1.88   5.03   0.00   0.00   6.91    -0.91
  O       15     1.87   4.99   0.00   0.00   6.86    -0.86
  O       16     1.87   4.99   0.00   0.00   6.86    -0.86
  O       17     1.87   4.99   0.00   0.00   6.86    -0.86
  O       18     1.87   4.99   0.00   0.00   6.86    -0.86
  O       19     1.87   4.99   0.00   0.00   6.86    -0.86
  O       20     1.88   5.03   0.00   0.00   6.91    -0.91
  O       21     1.88   5.03   0.00   0.00   6.91    -0.91
  O       22     1.88   5.03   0.00   0.00   6.91    -0.91
  O       23     1.87   4.99   0.00   0.00   6.86    -0.86
  O       24     1.87   4.99   0.00   0.00   6.86    -0.86
  O       25     1.86   4.95   0.00   0.00   6.80    -0.80
  O       26     1.88   5.03   0.00   0.00   6.91    -0.91
  O       27     1.87   4.99   0.00   0.00   6.86    -0.86
  O       28     1.88   5.03   0.00   0.00   6.91    -0.91
  O       29     1.88   5.03   0.00   0.00   6.91    -0.91
  O       30     1.87   4.99   0.00   0.00   6.86    -0.86
  O       31     1.86   4.95   0.00   0.00   6.80    -0.80
  O       32     1.88   5.03   0.00   0.00   6.91    -0.91
  O       33     1.88   5.03   0.00   0.00   6.91    -0.91
  O       34     1.88   5.03   0.00   0.00   6.91    -0.91
  O       35     1.86   4.95   0.00   0.00   6.80    -0.80
  O       36     1.88   5.03   0.00   0.00   6.91    -0.91
  O       37     1.88   5.03   0.00   0.00   6.91    -0.91
  O       38     1.87   4.99   0.00   0.00   6.86    -0.86
  O       39     1.87   4.99   0.00   0.00   6.86    -0.86
  O       40     1.88   5.03   0.00   0.00   6.91    -0.91
  O       41     1.88   5.02   0.00   0.00   6.91    -0.91
  O       42     1.86   4.95   0.00   0.00   6.80    -0.80
  O       43     1.87   4.99   0.00   0.00   6.86    -0.86
  O       44     1.88   5.03   0.00   0.00   6.91    -0.91
  O       45     1.86   4.95   0.00   0.00   6.80    -0.80
  O       46     1.89   5.03   0.00   0.00   6.91    -0.91
  O       47     1.87   4.99   0.00   0.00   6.86    -0.86
  O       48     1.87   4.99   0.00   0.00   6.86    -0.86
  O       49     1.88   5.03   0.00   0.00   6.91    -0.91
  O       50     1.86   4.95   0.00   0.00   6.80    -0.80
  O       51     1.86   4.95   0.00   0.00   6.80    -0.80
  O       52     1.87   4.99   0.00   0.00   6.86    -0.86
  O       53     1.88   5.03   0.00   0.00   6.91    -0.91
  O       54     1.86   4.95   0.00   0.00   6.80    -0.80
  O       55     1.87   4.99   0.00   0.00   6.86    -0.86
  O       56     1.87   4.99   0.00   0.00   6.86    -0.86
  Zr       1     2.37   6.47   1.92   0.00  10.76     1.24
  Zr       2     2.36   6.47   1.92   0.00  10.76     1.24
  Zr       3     2.36   6.47   1.92   0.00  10.76     1.24
  Zr       4     2.36   6.47   1.92   0.00  10.76     1.24
  Zr       5     2.36   6.47   1.92   0.00  10.76     1.24
  Zr       6     2.37   6.47   1.92   0.00  10.76     1.24
  Sn       1     1.04   1.31  10.00   0.00  12.35     1.65
  Sn       2     1.04   1.31  10.00   0.00  12.35     1.65
  Sn       3     1.04   1.31  10.00   0.00  12.35     1.65
  Sn       4     1.04   1.31  10.00   0.00  12.35     1.65
  Sn       5     1.04   1.31  10.00   0.00  12.35     1.65
  Sn       6     1.04   1.31  10.00   0.00  12.35     1.65
  Sn       7     1.04   1.31  10.00   0.00  12.35     1.65
  Sn       8     1.04   1.31  10.00   0.00  12.35     1.65
  Sn       9     1.04   1.31  10.00   0.00  12.35     1.65
  Sn      10     1.04   1.31  10.00   0.00  12.35     1.65
  La       1     2.08   6.18   1.19   0.00   9.46     1.54
  La       2     2.11   6.19   1.19   0.00   9.50     1.50
  La       3     2.03   6.15   1.20   0.00   9.38     1.62
  La       4     2.05   6.17   1.19   0.00   9.42     1.58
  La       5     2.03   6.15   1.20   0.00   9.38     1.62
  La       6     2.11   6.19   1.19   0.00   9.50     1.50
  La       7     2.05   6.17   1.19   0.00   9.42     1.58
  La       8     2.07   6.18   1.19   0.00   9.45     1.55
  La       9     2.11   6.19   1.19   0.00   9.50     1.50
  La      10     2.08   6.18   1.20   0.00   9.45     1.55
  La      11     2.08   6.18   1.20   0.00   9.45     1.55
  La      12     2.11   6.19   1.19   0.00   9.50     1.50
  La      13     2.05   6.17   1.19   0.00   9.42     1.58
  La      14     2.07   6.18   1.19   0.00   9.45     1.55
  La      15     2.08   6.18   1.19   0.00   9.46     1.54
  La      16     2.05   6.17   1.19   0.00   9.42     1.58
==============================================================
 
            Bond              Population      Length (A)
============================================================
         O 9  -- Sn 9              0.34        2.09819
         O 9  -- Sn 5              0.34        2.09915
         O 48 -- Sn 7              0.34        2.10495
         O 56 -- Sn 6              0.34        2.10495
         O 15 -- Sn 7              0.34        2.10513
         O 19 -- Sn 6              0.34        2.10513
         O 18 -- Sn 4              0.35        2.10558
         O 39 -- Sn 2              0.35        2.10558
         O 16 -- Sn 10             0.35        2.10575
         O 43 -- Sn 8              0.35        2.10575
         O 37 -- Sn 6              0.34        2.10578
         O 21 -- Sn 7              0.34        2.10578
         O 55 -- Sn 4              0.34        2.10602
         O 47 -- Sn 2              0.34        2.10602
         O 22 -- Sn 8              0.34        2.10604
         O 32 -- Sn 10             0.34        2.10604
         O 22 -- Sn 6              0.34        2.10605
         O 32 -- Sn 7              0.34        2.10605
         O 17 -- Sn 10             0.34        2.10610
         O 13 -- Sn 8              0.34        2.10610
         O 34 -- Sn 8              0.33        2.10641
         O 26 -- Sn 10             0.33        2.10641
         O 37 -- Sn 2              0.34        2.10655
         O 21 -- Sn 4              0.34        2.10655
         O 34 -- Sn 2              0.33        2.10671
         O 26 -- Sn 4              0.33        2.10671
         O 52 -- Sn 9              0.34        2.10723
         O 27 -- Sn 5              0.34        2.10726
         O 40 -- Sn 1              0.34        2.10820
         O 20 -- Sn 3              0.34        2.10820
         O 45 -- Zr 6              0.42        2.10859
         O 44 -- Sn 1              0.34        2.10868
         O 14 -- Sn 3              0.34        2.10868
         O 14 -- Sn 9              0.34        2.10899
         O 44 -- Sn 9              0.34        2.10899
         O 20 -- Sn 5              0.34        2.10944
         O 40 -- Sn 5              0.34        2.10944
         O 42 -- Zr 5              0.41        2.11039
         O 10 -- Zr 4              0.41        2.11039
         O 42 -- Zr 2              0.40        2.11079
         O 10 -- Zr 3              0.40        2.11079
         O 29 -- Sn 8              0.34        2.11100
         O 36 -- Sn 10             0.34        2.11100
         O 49 -- Sn 2              0.34        2.11143
         O 53 -- Sn 4              0.34        2.11143
         O 28 -- Sn 3              0.34        2.11205
         O 33 -- Sn 1              0.34        2.11205
         O 49 -- Sn 3              0.34        2.11248
         O 53 -- Sn 1              0.34        2.11248
         O 38 -- Sn 5              0.34        2.11258
         O 23 -- Sn 5              0.34        2.11258
         O 24 -- Sn 9              0.34        2.11261
         O 30 -- Sn 9              0.34        2.11261
         O 29 -- Sn 3              0.34        2.11268
         O 36 -- Sn 1              0.34        2.11268
         O 45 -- Zr 1              0.41        2.11310
         O 28 -- Sn 6              0.33        2.11452
         O 33 -- Sn 7              0.33        2.11452
         O 51 -- Zr 3              0.42        2.11643
         O 51 -- Zr 2              0.42        2.11643
         O 35 -- Zr 2              0.42        2.11703
         O 31 -- Zr 3              0.42        2.11703
         O 25 -- Zr 4              0.42        2.11703
         O 25 -- Zr 5              0.42        2.11703
         O 50 -- Zr 1              0.42        2.11713
         O 54 -- Zr 1              0.42        2.11713
         O 35 -- Zr 6              0.42        2.11855
         O 31 -- Zr 6              0.42        2.11855
         O 46 -- Sn 1              0.33        2.11908
         O 46 -- Sn 3              0.33        2.11908
         O 13 -- Zr 5              0.44        2.11908
         O 17 -- Zr 4              0.44        2.11908
         O 54 -- Zr 4              0.42        2.11990
         O 50 -- Zr 5              0.42        2.11990
         O 15 -- Zr 6              0.44        2.12094
         O 19 -- Zr 6              0.44        2.12094
         O 55 -- Zr 2              0.44        2.12201
         O 47 -- Zr 3              0.44        2.12201
         O 52 -- Zr 1              0.45        2.12210
         O 56 -- Zr 1              0.44        2.12242
         O 48 -- Zr 1              0.44        2.12242
         O 43 -- Zr 2              0.45        2.12252
         O 16 -- Zr 3              0.45        2.12252
         O 41 -- Sn 10             0.33        2.12420
         O 12 -- Sn 8              0.33        2.12420
         O 12 -- Sn 4              0.33        2.12448
         O 41 -- Sn 2              0.33        2.12448
         O 39 -- Zr 4              0.45        2.12485
         O 18 -- Zr 5              0.45        2.12485
         O 30 -- Zr 5              0.45        2.12496
         O 24 -- Zr 4              0.45        2.12496
         O 11 -- Sn 7              0.33        2.12623
         O 11 -- Sn 6              0.33        2.12623
         O 27 -- Zr 6              0.45        2.12644
         O 23 -- Zr 3              0.45        2.12716
         O 38 -- Zr 2              0.45        2.12716
         O 3  -- La 3              0.17        2.35586
         O 3  -- La 5              0.17        2.35586
         O 8  -- La 5              0.17        2.35632
         O 7  -- La 3              0.17        2.35632
         O 4  -- La 16             0.17        2.35650
         O 2  -- La 13             0.17        2.35650
         O 4  -- La 4              0.17        2.35661
         O 2  -- La 7              0.17        2.35661
         O 8  -- La 10             0.18        2.35752
         O 7  -- La 11             0.18        2.35752
         O 1  -- La 11             0.16        2.35790
         O 1  -- La 10             0.16        2.35790
         O 8  -- La 4              0.18        2.35832
         O 7  -- La 7              0.18        2.35832
         O 8  -- La 13             0.18        2.35832
         O 7  -- La 16             0.18        2.35832
         O 5  -- La 15             0.17        2.35846
         O 6  -- La 14             0.16        2.35869
         O 6  -- La 1              0.17        2.35876
         O 5  -- La 8              0.16        2.35910
         O 5  -- La 2              0.16        2.36026
         O 5  -- La 6              0.16        2.36026
         O 6  -- La 12             0.16        2.36026
         O 6  -- La 9              0.16        2.36026
         O 1  -- La 15             0.18        2.36070
         O 1  -- La 1              0.18        2.36080
         O 3  -- La 14             0.19        2.36089
         O 3  -- La 8              0.19        2.36109
         O 2  -- La 2              0.17        2.36116
         O 4  -- La 6              0.17        2.36116
         O 2  -- La 12             0.17        2.36124
         O 4  -- La 9              0.17        2.36124
         O 45 -- La 5              0.12        2.66119
         O 45 -- La 3              0.12        2.66119
         O 10 -- La 13             0.13        2.66245
         O 42 -- La 16             0.13        2.66245
         O 42 -- La 4              0.13        2.66259
         O 10 -- La 7              0.13        2.66259
         O 50 -- La 5              0.12        2.66278
         O 54 -- La 3              0.12        2.66278
         O 31 -- La 5              0.11        2.66320
         O 35 -- La 3              0.11        2.66320
         O 31 -- La 13             0.14        2.66380
         O 35 -- La 16             0.14        2.66380
         O 50 -- La 4              0.14        2.66383
         O 54 -- La 7              0.14        2.66383
         O 53 -- La 9              0.24        2.66673
         O 49 -- La 12             0.24        2.66673
         O 37 -- La 2              0.23        2.66680
         O 21 -- La 6              0.23        2.66680
         O 29 -- La 6              0.24        2.66685
         O 36 -- La 2              0.24        2.66685
         O 22 -- La 9              0.23        2.66724
         O 32 -- La 12             0.23        2.66724
         O 51 -- La 14             0.13        2.66740
         O 25 -- La 8              0.13        2.66745
         O 40 -- La 9              0.23        2.66750
         O 20 -- La 12             0.23        2.66750
         O 44 -- La 2              0.23        2.66765
         O 14 -- La 6              0.23        2.66765
         O 12 -- La 6              0.25        2.66839
         O 41 -- La 2              0.25        2.66839
         O 11 -- La 14             0.25        2.66861
         O 12 -- La 9              0.25        2.66878
         O 41 -- La 12             0.25        2.66878
         O 11 -- La 8              0.25        2.66927
         O 25 -- La 15             0.14        2.66986
         O 51 -- La 1              0.14        2.67010
         O 26 -- La 10             0.23        2.67046
         O 34 -- La 11             0.23        2.67046
         O 46 -- La 15             0.25        2.67113
         O 46 -- La 1              0.25        2.67131
         O 32 -- La 14             0.22        2.67146
         O 22 -- La 14             0.22        2.67146
         O 21 -- La 8              0.22        2.67177
         O 37 -- La 8              0.22        2.67177
         O 47 -- La 11             0.17        2.67249
         O 55 -- La 10             0.17        2.67249
         O 17 -- La 10             0.17        2.67330
         O 13 -- La 11             0.17        2.67330
         O 36 -- La 15             0.24        2.67340
         O 29 -- La 15             0.24        2.67340
         O 48 -- La 6              0.19        2.67347
         O 56 -- La 2              0.19        2.67347
         O 53 -- La 1              0.24        2.67348
         O 49 -- La 1              0.24        2.67348
         O 15 -- La 12             0.19        2.67353
         O 19 -- La 9              0.19        2.67353
         O 9  -- La 11             0.22        2.67383
         O 9  -- La 10             0.22        2.67383
         O 38 -- La 10             0.18        2.67397
         O 23 -- La 11             0.18        2.67397
         O 33 -- La 13             0.23        2.67482
         O 28 -- La 16             0.23        2.67482
         O 24 -- La 10             0.18        2.67484
         O 30 -- La 11             0.18        2.67484
         O 33 -- La 4              0.23        2.67510
         O 28 -- La 7              0.23        2.67510
         O 18 -- La 8              0.18        2.67535
         O 39 -- La 8              0.18        2.67535
         O 16 -- La 14             0.18        2.67555
         O 43 -- La 14             0.18        2.67555
         O 14 -- La 16             0.23        2.67638
         O 44 -- La 13             0.23        2.67638
         O 20 -- La 7              0.23        2.67657
         O 40 -- La 4              0.23        2.67657
         O 26 -- La 5              0.22        2.67868
         O 34 -- La 3              0.22        2.67868
         O 39 -- La 3              0.17        2.68008
         O 18 -- La 5              0.17        2.68008
         O 43 -- La 3              0.17        2.68087
         O 16 -- La 5              0.17        2.68087
         O 23 -- La 7              0.18        2.68126
         O 38 -- La 4              0.18        2.68126
         O 24 -- La 13             0.18        2.68137
         O 30 -- La 16             0.18        2.68137
         O 55 -- La 1              0.19        2.68233
         O 47 -- La 1              0.19        2.68233
         O 17 -- La 15             0.19        2.68241
         O 13 -- La 15             0.19        2.68241
         O 27 -- La 12             0.19        2.68252
         O 27 -- La 9              0.19        2.68252
         O 52 -- La 6              0.19        2.68282
         O 52 -- La 2              0.19        2.68282
         O 19 -- La 16             0.17        2.68345
         O 15 -- La 13             0.17        2.68345
         O 56 -- La 7              0.18        2.68375
         O 48 -- La 4              0.18        2.68375
         O 13 -- O 34             -0.06        2.79431
         O 17 -- O 26             -0.06        2.79431
         O 9  -- O 24             -0.06        2.79476
         O 9  -- O 30             -0.06        2.79476
         O 26 -- O 55             -0.06        2.79515
         O 34 -- O 47             -0.06        2.79515
         O 9  -- O 23             -0.06        2.79549
         O 9  -- O 38             -0.06        2.79549
         O 20 -- O 49             -0.05        2.79656
         O 40 -- O 53             -0.05        2.79656
         O 14 -- O 29             -0.05        2.79675
         O 36 -- O 44             -0.05        2.79675
         O 16 -- O 26             -0.06        2.79702
         O 34 -- O 43             -0.06        2.79702
         O 33 -- O 40             -0.05        2.79745
         O 20 -- O 28             -0.05        2.79745
         O 14 -- O 28             -0.05        2.79758
         O 33 -- O 44             -0.05        2.79758
         O 18 -- O 26             -0.06        2.79765
         O 34 -- O 39             -0.06        2.79765
         O 21 -- O 48             -0.06        2.79853
         O 37 -- O 56             -0.06        2.79853
         O 19 -- O 22             -0.06        2.79854
         O 15 -- O 32             -0.06        2.79854
         O 16 -- O 32             -0.06        2.79933
         O 22 -- O 43             -0.06        2.79933
         O 18 -- O 21             -0.06        2.79964
         O 37 -- O 39             -0.06        2.79964
         O 15 -- O 33             -0.06        2.80457
         O 19 -- O 28             -0.06        2.80457
         O 33 -- O 48             -0.06        2.80479
         O 28 -- O 56             -0.06        2.80479
         O 36 -- O 46             -0.05        2.80576
         O 29 -- O 46             -0.05        2.80576
         O 46 -- O 53             -0.05        2.80585
         O 46 -- O 49             -0.05        2.80585
         O 35 -- O 45             -0.04        2.80587
         O 31 -- O 45             -0.04        2.80587
         O 11 -- O 32             -0.05        2.80594
         O 11 -- O 22             -0.05        2.80594
         O 45 -- O 50             -0.04        2.80602
         O 45 -- O 54             -0.04        2.80602
         O 11 -- O 21             -0.05        2.80608
         O 11 -- O 37             -0.05        2.80608
         O 32 -- O 41             -0.05        2.80660
         O 12 -- O 22             -0.05        2.80660
         O 12 -- O 21             -0.05        2.80671
         O 37 -- O 41             -0.05        2.80671
         O 36 -- O 41             -0.05        2.80679
         O 12 -- O 29             -0.05        2.80679
         O 12 -- O 53             -0.05        2.80700
         O 41 -- O 49             -0.05        2.80700
         O 14 -- O 52             -0.06        2.80719
         O 44 -- O 52             -0.06        2.80719
         O 27 -- O 40             -0.06        2.80802
         O 20 -- O 27             -0.06        2.80802
         O 17 -- O 36             -0.05        2.80909
         O 13 -- O 29             -0.05        2.80909
         O 53 -- O 55             -0.05        2.80949
         O 47 -- O 49             -0.05        2.80949
         O 14 -- O 30             -0.05        2.80960
         O 24 -- O 44             -0.05        2.80960
         O 35 -- O 42             -0.03        2.80993
         O 10 -- O 31             -0.03        2.80993
         O 42 -- O 50             -0.03        2.81005
         O 10 -- O 54             -0.03        2.81005
         O 20 -- O 23             -0.05        2.81014
         O 38 -- O 40             -0.05        2.81014
         O 39 -- O 54             -0.03        2.82380
         O 18 -- O 50             -0.03        2.82380
         O 35 -- O 43             -0.03        2.82410
         O 16 -- O 31             -0.03        2.82410
         O 16 -- O 51             -0.03        2.82564
         O 43 -- O 51             -0.03        2.82564
         O 25 -- O 39             -0.03        2.82576
         O 18 -- O 25             -0.03        2.82576
         O 10 -- O 23             -0.03        2.82595
         O 38 -- O 42             -0.03        2.82595
         O 10 -- O 24             -0.03        2.82623
         O 30 -- O 42             -0.03        2.82623
         O 19 -- O 35             -0.03        2.82897
         O 15 -- O 31             -0.03        2.82897
         O 54 -- O 56             -0.03        2.82919
         O 48 -- O 50             -0.03        2.82919
         O 51 -- O 55             -0.03        2.83165
         O 47 -- O 51             -0.03        2.83165
         O 13 -- O 25             -0.03        2.83180
         O 17 -- O 25             -0.03        2.83180
         O 23 -- O 47             -0.03        2.83375
         O 38 -- O 55             -0.03        2.83375
         O 13 -- O 30             -0.03        2.83436
         O 17 -- O 24             -0.03        2.83436
         O 15 -- O 27             -0.03        2.83802
         O 19 -- O 27             -0.03        2.83802
         O 52 -- O 56             -0.03        2.83842
         O 48 -- O 52             -0.03        2.83842
============================================================
 

Writing analysis data to 065.castep_bin

Writing model to 065.check
 
 A BibTeX formatted list of references used in this run has been written to 
 065.bib
 
Initialisation time =     54.01 s
Calculation time    =  34324.44 s
Finalisation time   =     76.56 s
Total time          =  34455.01 s
Peak Memory Use     = 2843192 kB
  
Overall parallel efficiency rating: Good (78%)                                  
  
Data was distributed by:-
G-vector (4-way); efficiency rating: Good (78%)                                 
k-point (14-way); efficiency rating: Excellent (99%)                            
