 +-------------------------------------------------+
 |                                                 |
 |      CCC   AA    SSS  TTTTT  EEEEE  PPPP        |
 |     C     A  A  S       T    E      P   P       |
 |     C     AAAA   SS     T    EEE    PPPP        |
 |     C     A  A     S    T    E      P           |
 |      CCC  A  A  SSS     T    EEEEE  P           |
 |                                                 |
 +-------------------------------------------------+
 |                                                 |
 | Welcome to Academic Release CASTEP version 16.11|          
 | Ab Initio Total Energy Program                  |
 |                                                 |
 | Authors:                                        |
 | M. Segall, M. Probert, C. Pickard, P. Hasnip,   |
 | S. Clark, K. Refson, J. R. Yates, M. Payne      |
 |                                                 |
 | Contributors:                                   |
 | P. Lindan, P. Haynes, J. White, V. Milman,      |
 | N. Govind, M. Gibson, P. Tulip, V. Cocula,      |
 | B. Montanari, D. Quigley, M. Glover,            |
 | L. Bernasconi, A. Perlov, M. Plummer,           |
 | E. McNellis, J. Meyer, J. Gale, D. Jochym       |
 | J. Aarons, B. Walker, R. Gillen, D. Jones       |
 | T. Green, I. J. Bush, C. J. Armstrong,          |
 | E. J. Higgins, E. L. Brown, M. S. McFly         |
 |                                                 |
 | Copyright (c) 2000 - 2015                       |
 |                                                 |
 |     Distributed under the terms of an           |
 |     Agreement between the United Kingdom        |
 |     Car-Parrinello (UKCP) Consortium,           |
 |     Daresbury Laboratory and Accelrys, Inc.     |
 |                                                 |
 | Please cite                                     |
 |                                                 |
 |     "First principles methods using CASTEP"     |
 |                                                 |
 |         Zeitschrift fuer Kristallographie       |
 |           220(5-6) pp. 567-570 (2005)           |
 |                                                 |
 | S. J. Clark, M. D. Segall, C. J. Pickard,       |
 | P. J. Hasnip, M. J. Probert, K. Refson,         |
 | M. C. Payne                                     |
 |                                                 |
 |       in all publications arising from          |
 |              your use of CASTEP                 |
 |                                                 |
 +-------------------------------------------------+
 
 
 Compiled for linux_x86_64_ifort16 on Sat, 23 Jul 2016 23:44:54 +0100
 from code version 
 203e84763863+ Castep161_branch Fri, 04 Mar 2016 19:21:07 +0000
 Compiler: Intel Fortran 16.0.3.210; Optimisation: fast
 MATHLIBS: Intel MKL(11.3.3) (LAPACK version 3.6.0)
 FFT Lib : mkl
 Fundamental constants values: CODATA 2010
 
 Run started: Sat, 09 Dec 2017 21:44:59 +0000
 +-------------------------------------------------+
 |                                                 |
 |           N   N    M   M    RRRR                |
 |           NN  N    MM MM    R   R               |
 |           N N N    M M M    RRRR                |
 |           N  NN    M   M    R  R                |
 |           N   N    M   M    R   R               |
 |                                                 |
 +-------------------------------------------------+
 |                                                 |
 | Welcome to Materials Studio CASTEP-NMR          |
 |                                                 |
 | Authors:                                        |
 | J.R. Yates, C.J. Pickard, F. Mauri              |
 |                                                 |
 | Contributors:                                   |
 | T.F.G. Green, S.A. Joyce                        |
 |                                                 |
 | Copyright (c) 2004 - 2015                       |
 |                                                 |
 | Please cite the appropriate publications in all |
 | work arising from your use of CASTEP NMR.       |
 |                                                 |
 | For NMR Shielding Tensors cite:                 |
 |    "All-electron magnetic response with         |
 |    pseudopotentials: NMR chemical shifts",      |
 |    C. J. Pickard, F. Mauri;                     |
 |    Physical Review B63 245101 (2001), and       |
 |                                                 |
 |    "Calculation of NMR Chemical Shifts          |
 |    for extended systems using                   |
 |    Ultrasoft Pseudopotentials",                 |
 |    J. R. Yates, C. J. Pickard and F. Mauri      |
 |    Physical Review B76 024401 (2007)            |
 |                                                 |
 | For Electric Field Gradients cite:              |
 |   "Accurate First Principles Prediction of 17O  |
 |    NMR Parameters in SiO2: Assignment of the    |
 |    Zeolite Ferrierite Spectrum"                 |
 |    M. Profeta, F. Mauri and C. J. Pickard       |
 |    J. Amer. Chem. Soc. 125 541 (2003)           |
 |                                                 |
 | For Spin-Spin (J) Couplings cite:               |
 |   "A first principles theory of NMR J-coupling  |
 |   in solid-state systems"                       |
 |   S.A. Joyce, J.R. Yates, C.J. Pickard, F. Mauri|
 |   J. Chem. Phys. 127 204107 (2007)              |
 |                                                 |
 |   "Relativistic NMR J-coupling with ultrasoft   |
 |   pseudopotentials and the zeroth-order regular |
 |   approximation"                                |
 |   T.F.G. Green and J.R. Yates                   |
 |   J. Chem. Phys. 140 234106 (2014)              |
 |                                                 |
 +-------------------------------------------------+
 
 
 Atomic calculation performed for O: 1s2 2s2 2p4
 
 Converged in 44 iterations to an ae energy of -2040.855 eV
 
 
 Atomic calculation performed for O: 1s2 2s2 2p4
 
 Exceeded max iterations: converged to 0.000000062 eV
 
   ============================================================                
   | Pseudopotential Report - Date of generation  9-12-2017   |                
   ------------------------------------------------------------                
   | Element: O Ionic charge:  6.00 Level of theory: PBE      |                
   | Atomic Solver: ZORA (scalar)                             |                
   |                                                          |                
   |               Reference Electronic Structure             |                
   |         Orbital         Occupation         Energy        |                
   |            2s              2.000           -0.881        |                
   |            2p              4.000           -0.332        |                
   |                                                          |                
   |                 Pseudopotential Definition               |                
   |        Beta     l      e      Rc     scheme   norm       |                
   |          1      0   -0.881   1.100     qc      0         |                
   |          2      0    0.250   1.100     qc      0         |                
   |          3      1   -0.332   1.100     qc      0         |                
   |          4      1    0.250   1.100     qc      0         |                
   |         loc     2    0.000   1.100     pn      0         |                
   |                                                          |                
   | Augmentation charge Rinner = 0.769                       |                
   | Partial core correction Rc = 0.769                       |                
   ------------------------------------------------------------                
   | "2|1.1|15|18|20|20:21(qc=7)"                             |                
   ------------------------------------------------------------                
   |      Author: Chris J. Pickard, Cambridge University      |                
   ============================================================                
 
 Atomic calculation performed for Zr: 1s2 2s2 2p6 3s2 3p6 3d10 4s2 4p6 4d2 5s2
 
 Converged in 53 iterations to an ae energy of -97719.888 eV
 
 
 Atomic calculation performed for Zr: 1s2 2s2 2p6 3s2 3p6 3d10 4s2 4p6 4d2 5s2
 
 Exceeded max iterations: converged to 0.000000970 eV
 
 Warning: ion_atom_descreen_psp: negative charge density encountered
   ============================================================                
   | Pseudopotential Report - Date of generation  9-12-2017   |                
   ------------------------------------------------------------                
   | Element: Zr Ionic charge: 12.00 Level of theory: PBE     |                
   | Atomic Solver: ZORA (scalar)                             |                
   |                                                          |                
   |               Reference Electronic Structure             |                
   |         Orbital         Occupation         Energy        |                
   |            4s              2.000           -2.003        |                
   |            4p              6.000           -1.193        |                
   |            5s              2.000           -0.163        |                
   |            4d              2.000           -0.132        |                
   |                                                          |                
   |                 Pseudopotential Definition               |                
   |        Beta     l      e      Rc     scheme   norm       |                
   |          1      0   -2.003   2.105     qc      0         |                
   |          2      0   -0.163   2.105     qc      0         |                
   |          3      0    0.250   2.105     qc      0         |                
   |          4      1   -1.193   2.105     qc      0         |                
   |          5      1    0.250   2.105     qc      0         |                
   |          6      2   -0.132   2.105     qc      0         |                
   |          7      2    0.250   2.105     qc      0         |                
   |         loc     3    0.000   2.105     pn      0         |                
   |                                                          |                
   | Augmentation charge Rinner = 1.471                       |                
   | Partial core correction Rc = 1.471                       |                
   ------------------------------------------------------------                
   | "3|2.1|7|8|9|40U:50:41:42"                               |                
   ------------------------------------------------------------                
   |      Author: Chris J. Pickard, Cambridge University      |                
   ============================================================                
 
 Atomic calculation performed for La:
 1s2 2s2 2p6 3s2 3p6 3d10 4s2 4p6 4d10 5s2 5p6 5d1 6s2
 
 Converged in 56 iterations to an ae energy of -230121.495 eV
 
 
 Atomic calculation performed for La:
 1s2 2s2 2p6 3s2 3p6 3d10 4s2 4p6 4d10 5s2 5p6 5d1 6s2
 
 Exceeded max iterations: converged to 0.000000907 eV
 
 Warning: ion_atom_descreen_psp: negative charge density encountered
   ============================================================                
   | Pseudopotential Report - Date of generation  9-12-2017   |                
   ------------------------------------------------------------                
   | Element: La Ionic charge: 11.00 Level of theory: PBE     |                
   | Atomic Solver: ZORA (scalar)                             |                
   |                                                          |                
   |               Reference Electronic Structure             |                
   |         Orbital         Occupation         Energy        |                
   |            5s              2.000           -1.430        |                
   |            5p              6.000           -0.823        |                
   |            6s              2.000           -0.135        |                
   |            5d              1.000           -0.114        |                
   |                                                          |                
   |                 Pseudopotential Definition               |                
   |        Beta     l      e      Rc     scheme   norm       |                
   |          1      0   -1.430   2.298     qc      0         |                
   |          2      0   -0.135   2.298     qc      0         |                
   |          3      0    0.250   2.298     qc      0         |                
   |          4      1   -0.823   2.298     qc      0         |                
   |          5      1    0.250   2.298     qc      0         |                
   |          6      2   -0.114   2.298     qc      0         |                
   |          7      2    0.250   2.298     qc      0         |                
   |         loc     2    0.000   2.298     pn      0         |                
   |                                                          |                
   | Augmentation charge Rinner = 1.606                       |                
   | Partial core correction Rc = 1.606                       |                
   ------------------------------------------------------------                
   | "2|2.3|5|6|7|50U:60:51:52(qc=4.5)"                       |                
   ------------------------------------------------------------                
   |      Author: Chris J. Pickard, Cambridge University      |                
   ============================================================                
 
 Pseudo atomic calculation performed for O 2s2 2p4
 
 Converged in 39 iterations to a total energy of -432.6554 eV
 
 
 Pseudo atomic calculation performed for Zr 4s2 4p6 4d2 5s2
 
 Converged in 38 iterations to a total energy of -1285.4931 eV
 
 
 Pseudo atomic calculation performed for La 5s2 5p6 5d1 6s2
 
 Converged in 34 iterations to a total energy of -968.0372 eV
 
 Calculation parallelised over 56 processes.
 Data is distributed by G-vector(4-way) and k-point(14-way)

 ************************************ Title ************************************
 nmr testing

 ***************************** General Parameters ******************************
  
 output verbosity                               : normal  (1)
 write checkpoint data to                       : La2Zr2O7.check
 type of calculation                            : Magnetic Resonance
 stress calculation                             : on
 density difference calculation                 : off
 electron localisation func (ELF) calculation   : off
 Hirshfeld analysis                             : off
 unlimited duration calculation
 timing information                             : on
 memory usage estimate                          : on
 write final potential to formatted file        : off
 write final density to formatted file          : off
 write structure in CIF formatted file          : on
 write structure in CELL formatted file         : on
 write BibTeX reference list                    : on
 write OTFG pseudopotential files               : on
 checkpoint writing                             : both castep_bin and check files
  
 output         length unit                     : A
 output           mass unit                     : amu
 output           time unit                     : ps
 output         charge unit                     : e
 output           spin unit                     : hbar/2
 output         energy unit                     : eV
 output          force unit                     : eV/A
 output       velocity unit                     : A/ps
 output       pressure unit                     : GPa
 output     inv_length unit                     : 1/A
 output      frequency unit                     : cm-1
 output force constant unit                     : eV/A**2
 output         volume unit                     : A**3
 output   IR intensity unit                     : (D/A)**2/amu
 output         dipole unit                     : D
 output         efield unit                     : eV/A/e
 output        entropy unit                     : J/mol/K
  
 wavefunctions paging                           : none
 random number generator seed                   : randomised (214501648)
 data distribution                              : optimal for this architecture
 optimization strategy                          : maximize speed(+++)

 *********************** Exchange-Correlation Parameters ***********************
  
 using functional                               : Perdew Burke Ernzerhof
 relativistic treatment                         : ZORA
 DFT+D: Semi-empirical dispersion correction    : off

 ************************* Pseudopotential Parameters **************************
  
 pseudopotential representation                 : reciprocal space
 <beta|phi> representation                      : reciprocal space
 spin-orbit coupling                            : off

 **************************** Basis Set Parameters *****************************
  
 plane wave basis set cut-off                   :   816.3416   eV
 size of standard grid                          :     1.7500
 size of   fine   gmax                          :    25.6161   1/A
 finite basis set correction                    : automatic
 number of sample energies                      :          3
           sample  spacing                      :     5.0000   eV

 **************************** Electronic Parameters ****************************
  
 number of  electrons                           :  704.0    
 net charge of system                           :  0.000    
 treating system as non-spin-polarized
 number of bands                                :        422

 ********************* Electronic Minimization Parameters **********************
  
 Method: Treating system as metallic with density mixing treatment of electrons,
         and number of  SD  steps               :          1
         and number of  CG  steps               :          4
  
 total energy / atom convergence tol.           : 0.1000E-08   eV
 eigen-energy convergence tolerance             : 0.2500E-09   eV
 max force / atom convergence tol.              : ignored
 convergence tolerance window                   :          3   cycles
 max. number of SCF cycles                      :         50
 number of fixed-spin iterations                :         10
 smearing scheme                                : Gaussian
 smearing width                                 : 0.2000       eV
 Fermi energy convergence tolerance             : 0.2721E-13   eV
 periodic dipole correction                     : NONE

 ************************** Density Mixing Parameters **************************
  
 density-mixing scheme                          : Broyden
 max. length of mixing history                  :         20
 charge density mixing amplitude                : 0.8000    
 cut-off energy for mixing                      :  816.3       eV

 *********************** Population Analysis Parameters ************************
  
 Population analysis with cutoff                :  3.000       A

 ************************ Magnetic Resonance Parameters ************************
  
 Magnetic Resonance Property                    : Chemical Shielding + EFG
 Position Operator Method                       : crystal
 max. number of MagRes CG steps                 :        250
 convergence tolerance window                   :          2   cycles
 energy convergence tolerance                   : 0.1000E-11   eV
 band convergence tolerance                     : 0.1000E-08   eV

 *******************************************************************************
  
 
                           -------------------------------
                                      Unit Cell
                           -------------------------------
        Real Lattice(A)                      Reciprocal Lattice(1/A)
  10.9211126  -0.0000011  -0.0000038        0.5753247   0.0000001   0.0000002
  -0.0000011  10.9211084  -0.0000018        0.0000001   0.5753249   0.0000001
  -0.0000038  -0.0000018  10.9211097        0.0000002   0.0000001   0.5753248
 
                       Lattice parameters(A)       Cell Angles
                    a =   10.921113          alpha =   90.000018
                    b =   10.921108          beta  =   90.000040
                    c =   10.921110          gamma =   90.000012
 
                       Current cell volume = 1302.567901       A**3
 
                           -------------------------------
                                     Cell Contents
                           -------------------------------
                         Total number of ions in cell =   88
                      Total number of species in cell =    3
                        Max number of any one species =   56
 
            xxxxxxxxxxxxxxxxxxxxxxxxxxxxxxxxxxxxxxxxxxxxxxxxxxxxxxxxxxxx
            x  Element    Atom        Fractional coordinates of atoms  x
            x            Number           u          v          w      x
            x----------------------------------------------------------x
            x  O            1         0.125007   0.125007   0.125007   x 
            x  O            2         0.625007   0.125007   0.625007   x 
            x  O            3         0.125007   0.625007   0.625007   x 
            x  O            4         0.625007   0.625007   0.125007   x 
            x  O            5         0.874993   0.374993   0.374993   x 
            x  O            6         0.874993   0.874993   0.874993   x 
            x  O            7         0.374993   0.374993   0.874993   x 
            x  O            8         0.374993   0.874993   0.374993   x 
            x  O            9         0.419986   0.125000   0.125000   x 
            x  O           10         0.330026   0.125001   0.625001   x 
            x  O           11         0.830026   0.625001   0.625001   x 
            x  O           12         0.919986   0.625000   0.125000   x 
            x  O           13         0.125000   0.419986   0.125000   x 
            x  O           14         0.625001   0.330026   0.125001   x 
            x  O           15         0.625001   0.830026   0.625001   x 
            x  O           16         0.125000   0.919986   0.625000   x 
            x  O           17         0.125000   0.125000   0.419986   x 
            x  O           18         0.125001   0.625001   0.330026   x 
            x  O           19         0.625001   0.625001   0.830026   x 
            x  O           20         0.625000   0.125000   0.919986   x 
            x  O           21         0.874999   0.669974   0.374999   x 
            x  O           22         0.875000   0.580014   0.875000   x 
            x  O           23         0.375000   0.080014   0.875000   x 
            x  O           24         0.374999   0.169974   0.374999   x 
            x  O           25         0.169974   0.374999   0.374999   x 
            x  O           26         0.080014   0.875000   0.375000   x 
            x  O           27         0.580014   0.875000   0.875000   x 
            x  O           28         0.669974   0.374999   0.874999   x 
            x  O           29         0.875000   0.375000   0.080014   x 
            x  O           30         0.374999   0.374999   0.169974   x 
            x  O           31         0.374999   0.874999   0.669974   x 
            x  O           32         0.875000   0.875000   0.580014   x 
            x  O           33         0.669974   0.874999   0.374999   x 
            x  O           34         0.080014   0.375000   0.875000   x 
            x  O           35         0.374999   0.669974   0.874999   x 
            x  O           36         0.875000   0.080014   0.375000   x 
            x  O           37         0.874999   0.374999   0.669974   x 
            x  O           38         0.375000   0.875000   0.080014   x 
            x  O           39         0.125001   0.330026   0.625001   x 
            x  O           40         0.625000   0.919986   0.125000   x 
            x  O           41         0.919986   0.125000   0.625000   x 
            x  O           42         0.330026   0.625001   0.125001   x 
            x  O           43         0.125000   0.625000   0.919986   x 
            x  O           44         0.625001   0.125001   0.330026   x 
            x  O           45         0.419986   0.625000   0.625000   x 
            x  O           46         0.830026   0.125001   0.125001   x 
            x  O           47         0.125001   0.125001   0.830026   x 
            x  O           48         0.625000   0.625000   0.419986   x 
            x  O           49         0.874999   0.169974   0.874999   x 
            x  O           50         0.375000   0.580014   0.375000   x 
            x  O           51         0.169974   0.874999   0.874999   x 
            x  O           52         0.580014   0.375000   0.375000   x 
            x  O           53         0.874999   0.874999   0.169974   x 
            x  O           54         0.375000   0.375000   0.580014   x 
            x  O           55         0.125001   0.830026   0.125001   x 
            x  O           56         0.625000   0.419986   0.625000   x 
            x  Zr           1         0.500000   0.500000   0.500000   x 
            x  Zr           2         0.250000   0.750000   0.000000   x 
            x  Zr           3         0.750000   0.000000   0.250000   x 
            x  Zr           4        -0.000000   0.250000   0.750000   x 
            x  Zr           5         0.750000   0.250000   0.000000   x 
            x  Zr           6         0.250000   0.000000   0.750000   x 
            x  Zr           7         0.000000   0.750000   0.250000   x 
            x  Zr           8         0.500000  -0.000000  -0.000000   x 
            x  Zr           9         0.250000   0.250000   0.500000   x 
            x  Zr          10         0.750000   0.500000   0.750000   x 
            x  Zr          11         0.750000   0.750000   0.500000   x 
            x  Zr          12         0.250000   0.500000   0.250000   x 
            x  Zr          13        -0.000000   0.500000  -0.000000   x 
            x  Zr          14         0.500000   0.250000   0.250000   x 
            x  Zr          15         0.500000   0.750000   0.750000   x 
            x  Zr          16         0.000000   0.000000   0.500000   x 
            x  La           1         0.000000   0.000000   0.000000   x 
            x  La           2         0.750000   0.250000   0.500000   x 
            x  La           3         0.250000   0.500000   0.750000   x 
            x  La           4         0.500000   0.750000   0.250000   x 
            x  La           5         0.250000   0.750000   0.500000   x 
            x  La           6         0.750000   0.500000   0.250000   x 
            x  La           7         0.500000   0.250000   0.750000   x 
            x  La           8         0.000000   0.500000   0.500000   x 
            x  La           9         0.750000   0.750000   0.000000   x 
            x  La          10         0.250000  -0.000000   0.250000   x 
            x  La          11         0.250000   0.250000   0.000000   x 
            x  La          12         0.750000   0.000000   0.750000   x 
            x  La          13         0.500000   0.000000   0.500000   x 
            x  La          14         0.000000   0.750000   0.750000   x 
            x  La          15         0.000000   0.250000   0.250000   x 
            x  La          16         0.500000   0.500000   0.000000   x 
            xxxxxxxxxxxxxxxxxxxxxxxxxxxxxxxxxxxxxxxxxxxxxxxxxxxxxxxxxxxx
 
 
                         No user defined ionic velocities
 
                           -------------------------------
                                   Details of Species
                           -------------------------------
 
                               Mass of species in AMU
                                    O   15.9994000
                                    Zr   91.2240000
                                    La  138.9055000
 
                          Electric Quadrupole Moment (Barn)
                                    O   -0.0255800 Isotope 17
                                    Zr   -0.1760000 Isotope 91
                                    La    0.2000000 Isotope139
 
                          Files used for pseudopotentials:
                                    O 2|1.1|15|18|20|20:21(qc=7)
                                    Zr 3|2.1|7|8|9|40U:50:41:42
                                    La 2|2.3|5|6|7|50U:60:51:52(qc=4.5)
 
                           -------------------------------
                              k-Points For BZ Sampling
                           -------------------------------
                       MP grid size for SCF calculation is  3  3  3
                            with an offset of   0.000  0.000  0.000
                       Number of kpoints used =            14
 
                           -------------------------------
                               Symmetry and Constraints
                           -------------------------------
 
                      Cell is a supercell containing 4 primitive cells
                      Maximum deviation from symmetry =  0.00000         ANG
 
         There are no symmetry operations specified or generated for this cell
                      Number of ionic constraints     =           3
                      Point group of crystal =     1: C1, 1, 1
                      Space group of crystal =   227: Fd-3m, F 4d 2 3 -1d
 
 
                         Centre of mass is constrained
             Set iprint > 1 for details of linear ionic constraints
 
                         Number of cell constraints= 0
                         Cell constraints are:  1 2 3 4 5 6
 
                         External pressure/stress (GPa)
                          0.00000   0.00000   0.00000
                                    0.00000   0.00000
                                              0.00000
  
+---------------- MEMORY AND SCRATCH DISK ESTIMATES PER PROCESS --------------+
|                                                     Memory          Disk    |
| Baseline code, static data and system overhead      322.0 MB         0.0 MB |
| BLAS internal memory storage                          0.0 MB         0.0 MB |
| Model and support data                             1064.6 MB         0.0 MB |
| Electronic energy minimisation requirements         375.7 MB         0.0 MB |
| Force calculation requirements                       24.1 MB         0.0 MB |
| Stress calculation requirements                      28.3 MB         0.0 MB |
|                                               ----------------------------- |
| Approx. total storage required per process         1762.3 MB         0.0 MB |
|                                                                             |
| Requirements will fluctuate during execution and may exceed these estimates |
+-----------------------------------------------------------------------------+
Calculating finite basis set correction with  3 cut-off energies.
Calculating total energy with cut-off of  806.342eV.
------------------------------------------------------------------------ <-- SCF
SCF loop      Energy           Fermi           Energy gain       Timer   <-- SCF
                               energy          per atom          (sec)   <-- SCF
------------------------------------------------------------------------ <-- SCF
Initial  -4.85575951E+004  0.00000000E+000                        60.60  <-- SCF
      1  -5.84905226E+004  7.88806278E+000   1.12874176E+002     199.17  <-- SCF
      2  -6.11024853E+004  8.05352223E+000   2.96813953E+001     291.94  <-- SCF
      3  -6.11772799E+004  7.65753207E+000   8.49938671E-001     398.02  <-- SCF
      4  -6.11799197E+004  7.89703422E+000   2.99972339E-002     532.75  <-- SCF
      5  -6.10568886E+004  7.77778020E+000  -1.39808097E+000     660.72  <-- SCF
      6  -6.10591903E+004  7.76616154E+000   2.61561343E-002     816.41  <-- SCF
      7  -6.10591357E+004  7.78257411E+000  -6.20666219E-004     952.73  <-- SCF
      8  -6.10591248E+004  7.79817445E+000  -1.23644289E-004    1096.10  <-- SCF
      9  -6.10591273E+004  7.81788851E+000   2.85673895E-005    1237.72  <-- SCF
     10  -6.10591298E+004  7.82219050E+000   2.82966573E-005    1392.40  <-- SCF
     11  -6.10591303E+004  7.82453481E+000   5.93797913E-006    1526.62  <-- SCF
     12  -6.10591304E+004  7.82565329E+000   6.48069929E-007    1661.43  <-- SCF
     13  -6.10591304E+004  7.82588017E+000   1.02720796E-007    1797.43  <-- SCF
     14  -6.10591304E+004  7.82598789E+000   2.09856968E-008    1921.82  <-- SCF
     15  -6.10591304E+004  7.82601553E+000   1.90212759E-009    2033.30  <-- SCF
     16  -6.10591304E+004  7.82602195E+000  -2.23159347E-010    2127.86  <-- SCF
     17  -6.10591304E+004  7.82602512E+000   1.34289336E-010    2222.86  <-- SCF
------------------------------------------------------------------------ <-- SCF
 
Final energy, E             =  -61059.13041015     eV
Final free energy (E-TS)    =  -61059.13041015     eV
(energies not corrected for finite basis set)
 
NB est. 0K energy (E-0.5TS)      =  -61059.13041015     eV
 
Calculating total energy with cut-off of  811.342eV.
------------------------------------------------------------------------ <-- SCF
SCF loop      Energy           Fermi           Energy gain       Timer   <-- SCF
                               energy          per atom          (sec)   <-- SCF
------------------------------------------------------------------------ <-- SCF
Initial  -6.10591304E+004  0.00000000E+000                      2256.48  <-- SCF
      1  -6.10591329E+004  7.82602366E+000   2.77469659E-005    2369.01  <-- SCF
      2  -6.10591329E+004  7.82602366E+000   1.91379881E-010    2462.51  <-- SCF
      3  -6.10591329E+004  7.82601892E+000   1.66880162E-008    2555.64  <-- SCF
      4  -6.10591329E+004  7.82602031E+000   5.39547834E-010    2649.12  <-- SCF
      5  -6.10591329E+004  7.82601993E+000  -2.72797185E-011    2742.22  <-- SCF
------------------------------------------------------------------------ <-- SCF
 
Final energy, E             =  -61059.13285341     eV
Final free energy (E-TS)    =  -61059.13285341     eV
(energies not corrected for finite basis set)
 
NB est. 0K energy (E-0.5TS)      =  -61059.13285341     eV
 
Calculating total energy with cut-off of  816.342eV.
------------------------------------------------------------------------ <-- SCF
SCF loop      Energy           Fermi           Energy gain       Timer   <-- SCF
                               energy          per atom          (sec)   <-- SCF
------------------------------------------------------------------------ <-- SCF
Initial  -6.10591329E+004  0.00000000E+000                      2775.76  <-- SCF
      1  -6.10591355E+004  7.82601902E+000   3.04543869E-005    2890.52  <-- SCF
      2  -6.10591355E+004  7.82601902E+000   1.86177048E-010    2980.36  <-- SCF
      3  -6.10591355E+004  7.82601609E+000   1.78691999E-008    3070.07  <-- SCF
      4  -6.10591355E+004  7.82601826E+000   5.70905449E-010    3161.75  <-- SCF
      5  -6.10591355E+004  7.82601797E+000  -2.10925658E-011    3252.80  <-- SCF
------------------------------------------------------------------------ <-- SCF
 
Final energy, E             =  -61059.13553503     eV
Final free energy (E-TS)    =  -61059.13553503     eV
(energies not corrected for finite basis set)
 
NB est. 0K energy (E-0.5TS)      =  -61059.13553503     eV
 
 For future reference: finite basis dEtot/dlog(Ecut) =      -0.431457eV
 Total energy corrected for finite basis set =  -61059.135610 eV
 
  =====================================================================
  +       Calculation of Nuclear Magnetic Resonance Parameters        +
  + ================================================================= +
 
  Starting Calculation of Electric Field Gradient Tensors         |<-- EFG
  +---------------- MEMORY AND SCRATCH DISK ESTIMATES PER PROCESS --------------+
  |                                                     Memory          Disk    |
  | Model and support data                             1062.3 MB         0.0 MB |
  | NMR EFG calculation requirements                    361.3 MB         0.0 MB |
  |                                               ----------------------------- |
  | Approx. total storage required per process         1423.7 MB         0.0 MB |
  |                                                                             |
  | Requirements will fluctuate during execution and may exceed these estimates |
  +-----------------------------------------------------------------------------+
  Total Time for EFG Tensors                     400.96 sec       |<-- EFG
 
  Starting Calculation of Chemical Shielding Tensors              |<-- NMR
  +---------------- MEMORY AND SCRATCH DISK ESTIMATES PER PROCESS --------------+
  |                                                     Memory          Disk    |
  | Model and support data                             1062.3 MB         0.0 MB |
  | NMR chemical shift calculation requirements         541.3 MB         0.0 MB |
  |                                               ----------------------------- |
  | Approx. total storage required per process         1603.6 MB         0.0 MB |
  |                                                                             |
  | Requirements will fluctuate during execution and may exceed these estimates |
  +-----------------------------------------------------------------------------+
  Starting k-point:   1 of   1                                    |<-- NMR
  Total Time for step 1 of 6:                   2452.07 sec       |<-- NMR
  Total Time for step 2 of 6:                   2426.44 sec       |<-- NMR
  Total Time for step 3 of 6:                   2449.89 sec       |<-- NMR
  Total Time for step 4 of 6:                   2432.44 sec       |<-- NMR
  Total Time for step 5 of 6:                   2449.67 sec       |<-- NMR
  Total Time for step 6 of 6:                   2437.20 sec       |<-- NMR
  Total Time for Chemical Shielding Tensors    21211.64 sec       |<-- NMR
 
  ========================================================================
  |           Chemical Shielding and Electric Field Gradient Tensors     |
  |----------------------------------------------------------------------|
  |     Nucleus                Shielding tensor             EFG Tensor   |
  |  Species       Ion    Iso(ppm)   Aniso(ppm)  Asym    Cq(MHz)    Eta  |
  |    O           1     -315.56      -0.14      0.03  -8.173E-04   0.01 |
  |    O           2     -315.56      -0.14      0.03  -8.174E-04   0.01 |
  |    O           3     -315.56      -0.14      0.03  -8.165E-04   0.01 |
  |    O           4     -315.56      -0.14      0.03  -8.173E-04   0.01 |
  |    O           5     -315.56      -0.14      0.03  -8.168E-04   0.01 |
  |    O           6     -315.56      -0.14      0.03  -8.172E-04   0.01 |
  |    O           7     -315.56      -0.14      0.03  -8.170E-04   0.01 |
  |    O           8     -315.56      -0.14      0.03  -8.176E-04   0.01 |
  |    O           9     -167.52     155.30      0.79   1.078E+00   0.98 |
  |    O          10     -167.58     155.25      0.79   1.078E+00   0.98 |
  |    O          11     -167.58     155.25      0.79   1.078E+00   0.98 |
  |    O          12     -167.52     155.30      0.79   1.078E+00   0.98 |
  |    O          13     -167.52     155.30      0.79   1.078E+00   0.98 |
  |    O          14     -167.58     155.25      0.79   1.078E+00   0.98 |
  |    O          15     -167.58     155.25      0.79   1.078E+00   0.98 |
  |    O          16     -167.52     155.30      0.79   1.078E+00   0.98 |
  |    O          17     -167.52     155.30      0.79   1.078E+00   0.98 |
  |    O          18     -167.58     155.25      0.79   1.078E+00   0.98 |
  |    O          19     -167.58     155.25      0.79   1.078E+00   0.98 |
  |    O          20     -167.52     155.30      0.79   1.078E+00   0.98 |
  |    O          21     -167.58     155.25      0.79   1.078E+00   0.98 |
  |    O          22     -167.52     155.30      0.79   1.078E+00   0.98 |
  |    O          23     -167.52     155.30      0.79   1.078E+00   0.98 |
  |    O          24     -167.58     155.25      0.79   1.078E+00   0.98 |
  |    O          25     -167.58     155.25      0.79   1.078E+00   0.98 |
  |    O          26     -167.52     155.30      0.79   1.078E+00   0.98 |
  |    O          27     -167.52     155.30      0.79   1.078E+00   0.98 |
  |    O          28     -167.58     155.25      0.79   1.078E+00   0.98 |
  |    O          29     -167.52     155.30      0.79   1.078E+00   0.98 |
  |    O          30     -167.58     155.25      0.79   1.078E+00   0.98 |
  |    O          31     -167.58     155.25      0.79   1.078E+00   0.98 |
  |    O          32     -167.52     155.30      0.79   1.078E+00   0.98 |
  |    O          33     -167.58     155.25      0.79   1.078E+00   0.98 |
  |    O          34     -167.52     155.30      0.79   1.078E+00   0.98 |
  |    O          35     -167.58     155.25      0.79   1.078E+00   0.98 |
  |    O          36     -167.52     155.30      0.79   1.078E+00   0.98 |
  |    O          37     -167.58     155.25      0.79   1.078E+00   0.98 |
  |    O          38     -167.52     155.30      0.79   1.078E+00   0.98 |
  |    O          39     -167.58     155.25      0.79   1.078E+00   0.98 |
  |    O          40     -167.52     155.30      0.79   1.078E+00   0.98 |
  |    O          41     -167.52     155.30      0.79   1.078E+00   0.98 |
  |    O          42     -167.58     155.25      0.79   1.078E+00   0.98 |
  |    O          43     -167.52     155.30      0.79   1.078E+00   0.98 |
  |    O          44     -167.58     155.25      0.79   1.078E+00   0.98 |
  |    O          45     -167.52     155.30      0.79   1.078E+00   0.98 |
  |    O          46     -167.58     155.25      0.79   1.078E+00   0.98 |
  |    O          47     -167.58     155.25      0.79   1.078E+00   0.98 |
  |    O          48     -167.52     155.30      0.79   1.078E+00   0.98 |
  |    O          49     -167.58     155.25      0.79   1.078E+00   0.98 |
  |    O          50     -167.52     155.30      0.79   1.078E+00   0.98 |
  |    O          51     -167.58     155.25      0.79   1.078E+00   0.98 |
  |    O          52     -167.52     155.30      0.79   1.078E+00   0.98 |
  |    O          53     -167.58     155.25      0.79   1.078E+00   0.98 |
  |    O          54     -167.52     155.30      0.79   1.078E+00   0.98 |
  |    O          55     -167.58     155.25      0.79   1.078E+00   0.98 |
  |    O          56     -167.52     155.30      0.79   1.078E+00   0.98 |
  |    Zr          1     1626.81    -125.44      0.00  -4.156E+01   0.00 |
  |    Zr          2     1626.56    -125.44      0.00  -4.158E+01   0.01 |
  |    Zr          3     1626.56    -125.44      0.00  -4.158E+01   0.01 |
  |    Zr          4     1626.56    -125.44      0.00  -4.158E+01   0.01 |
  |    Zr          5     1626.56    -125.44      0.00  -4.158E+01   0.01 |
  |    Zr          6     1626.56    -125.44      0.00  -4.158E+01   0.01 |
  |    Zr          7     1626.56    -125.44      0.00  -4.158E+01   0.01 |
  |    Zr          8     1626.81    -125.43      0.00  -4.156E+01   0.00 |
  |    Zr          9     1626.56    -125.44      0.00  -4.158E+01   0.01 |
  |    Zr         10     1626.56    -125.44      0.00  -4.158E+01   0.01 |
  |    Zr         11     1626.56    -125.44      0.00  -4.158E+01   0.01 |
  |    Zr         12     1626.56    -125.44      0.00  -4.158E+01   0.01 |
  |    Zr         13     1626.81    -125.44      0.00  -4.156E+01   0.00 |
  |    Zr         14     1626.56    -125.44      0.00  -4.158E+01   0.01 |
  |    Zr         15     1626.56    -125.44      0.00  -4.158E+01   0.01 |
  |    Zr         16     1626.81    -125.44      0.00  -4.156E+01   0.00 |
  |    La          1     4803.77     969.17      0.00  -8.434E+01   0.00 |
  |    La          2     4803.72     969.42      0.00  -8.443E+01   0.00 |
  |    La          3     4803.72     969.43      0.00  -8.443E+01   0.00 |
  |    La          4     4803.72     969.43      0.00  -8.443E+01   0.00 |
  |    La          5     4803.72     969.42      0.00  -8.443E+01   0.00 |
  |    La          6     4803.72     969.44      0.00  -8.443E+01   0.00 |
  |    La          7     4803.72     969.43      0.00  -8.443E+01   0.00 |
  |    La          8     4803.77     969.17      0.00  -8.434E+01   0.00 |
  |    La          9     4803.72     969.43      0.00  -8.443E+01   0.00 |
  |    La         10     4803.72     969.43      0.00  -8.443E+01   0.00 |
  |    La         11     4803.71     969.43      0.00  -8.443E+01   0.00 |
  |    La         12     4803.72     969.44      0.00  -8.443E+01   0.00 |
  |    La         13     4803.77     969.17      0.00  -8.434E+01   0.00 |
  |    La         14     4803.72     969.43      0.00  -8.443E+01   0.00 |
  |    La         15     4803.72     969.43      0.00  -8.443E+01   0.00 |
  |    La         16     4803.76     969.17      0.00  -8.434E+01   0.00 |
  ========================================================================
 
 *********************** Forces ***********************
 *                                                    *
 *            Cartesian components (eV/A)             *
 * -------------------------------------------------- *
 *                   x            y            z      *
 *                                                    *
 * O         1     -0.00045     -0.00044     -0.00045 *
 * O         2     -0.00045     -0.00044     -0.00045 *
 * O         3     -0.00045     -0.00044     -0.00045 *
 * O         4     -0.00045     -0.00044     -0.00045 *
 * O         5      0.00045      0.00044      0.00045 *
 * O         6      0.00045      0.00044      0.00045 *
 * O         7      0.00044      0.00044      0.00045 *
 * O         8      0.00045      0.00044      0.00045 *
 * O         9     -0.00009      0.00016      0.00017 *
 * O        10     -0.00008      0.00017      0.00017 *
 * O        11     -0.00008      0.00017      0.00017 *
 * O        12     -0.00009      0.00016      0.00016 *
 * O        13      0.00017     -0.00009      0.00017 *
 * O        14      0.00017     -0.00008      0.00017 *
 * O        15      0.00017     -0.00008      0.00017 *
 * O        16      0.00016     -0.00009      0.00016 *
 * O        17      0.00016      0.00016     -0.00008 *
 * O        18      0.00017      0.00017     -0.00008 *
 * O        19      0.00017      0.00017     -0.00008 *
 * O        20      0.00016      0.00016     -0.00008 *
 * O        21     -0.00017      0.00008     -0.00017 *
 * O        22     -0.00016      0.00009     -0.00016 *
 * O        23     -0.00017      0.00009     -0.00017 *
 * O        24     -0.00017      0.00008     -0.00017 *
 * O        25      0.00008     -0.00017     -0.00017 *
 * O        26      0.00009     -0.00016     -0.00016 *
 * O        27      0.00009     -0.00016     -0.00016 *
 * O        28      0.00008     -0.00017     -0.00017 *
 * O        29     -0.00016     -0.00016      0.00009 *
 * O        30     -0.00017     -0.00017      0.00008 *
 * O        31     -0.00017     -0.00017      0.00008 *
 * O        32     -0.00016     -0.00016      0.00008 *
 * O        33      0.00008     -0.00017     -0.00017 *
 * O        34      0.00009     -0.00016     -0.00016 *
 * O        35     -0.00017      0.00008     -0.00017 *
 * O        36     -0.00016      0.00009     -0.00016 *
 * O        37     -0.00017     -0.00017      0.00008 *
 * O        38     -0.00016     -0.00016      0.00009 *
 * O        39      0.00017     -0.00008      0.00017 *
 * O        40      0.00017     -0.00009      0.00017 *
 * O        41     -0.00008      0.00016      0.00016 *
 * O        42     -0.00008      0.00017      0.00017 *
 * O        43      0.00016      0.00016     -0.00009 *
 * O        44      0.00017      0.00017     -0.00008 *
 * O        45     -0.00009      0.00016      0.00016 *
 * O        46     -0.00008      0.00017      0.00018 *
 * O        47      0.00017      0.00017     -0.00008 *
 * O        48      0.00016      0.00016     -0.00009 *
 * O        49     -0.00017      0.00008     -0.00017 *
 * O        50     -0.00017      0.00009     -0.00017 *
 * O        51      0.00008     -0.00017     -0.00017 *
 * O        52      0.00009     -0.00016     -0.00016 *
 * O        53     -0.00017     -0.00017      0.00008 *
 * O        54     -0.00016     -0.00016      0.00008 *
 * O        55      0.00017     -0.00008      0.00017 *
 * O        56      0.00017     -0.00009      0.00016 *
 * Zr        1      0.00001      0.00000      0.00001 *
 * Zr        2      0.00001     -0.00000     -0.00001 *
 * Zr        3     -0.00001     -0.00000     -0.00001 *
 * Zr        4     -0.00001     -0.00000      0.00001 *
 * Zr        5     -0.00001      0.00000     -0.00001 *
 * Zr        6      0.00001      0.00000      0.00001 *
 * Zr        7     -0.00001      0.00000     -0.00001 *
 * Zr        8      0.00000     -0.00000     -0.00000 *
 * Zr        9      0.00001     -0.00000      0.00001 *
 * Zr       10     -0.00001     -0.00000      0.00001 *
 * Zr       11     -0.00001     -0.00000      0.00001 *
 * Zr       12      0.00001      0.00000     -0.00001 *
 * Zr       13     -0.00000      0.00000     -0.00001 *
 * Zr       14      0.00001     -0.00000     -0.00001 *
 * Zr       15      0.00001      0.00000      0.00001 *
 * Zr       16     -0.00000     -0.00000      0.00000 *
 * La        1     -0.00000      0.00000     -0.00000 *
 * La        2     -0.00001     -0.00000      0.00001 *
 * La        3      0.00001     -0.00000      0.00001 *
 * La        4      0.00001      0.00000     -0.00001 *
 * La        5      0.00001      0.00000      0.00000 *
 * La        6     -0.00001      0.00000     -0.00001 *
 * La        7      0.00001     -0.00000      0.00001 *
 * La        8     -0.00001     -0.00000      0.00000 *
 * La        9     -0.00001      0.00000     -0.00000 *
 * La       10      0.00001      0.00000     -0.00001 *
 * La       11      0.00001     -0.00000     -0.00001 *
 * La       12     -0.00001      0.00000      0.00001 *
 * La       13      0.00001      0.00000      0.00001 *
 * La       14     -0.00001      0.00000      0.00001 *
 * La       15     -0.00001     -0.00000     -0.00001 *
 * La       16      0.00000     -0.00000     -0.00001 *
 *                                                    *
 ******************************************************
 
 ***************** Stress Tensor *****************
 *                                               *
 *          Cartesian components (GPa)           *
 * --------------------------------------------- *
 *             x             y             z     *
 *                                               *
 *  x     -0.000420      0.000500      0.000447  *
 *  y      0.000500     -0.000480      0.000487  *
 *  z      0.000447      0.000487     -0.000463  *
 *                                               *
 *  Pressure:    0.0005                          *
 *                                               *
 *************************************************
 
 Pseudo atomic calculation performed for O 2s2 2p4
 
 Converged in 39 iterations to a total energy of -432.6554 eV
 
 
 Pseudo atomic calculation performed for Zr 4s2 4p6 4d2 5s2
 
 Converged in 38 iterations to a total energy of -1285.4931 eV
 
 
 Pseudo atomic calculation performed for La 5s2 5p6 5d1 6s2
 
 Converged in 34 iterations to a total energy of -968.0372 eV
 
Charge spilling parameter for spin component 1 = 0.21%
 
     Atomic Populations (Mulliken)
     -----------------------------
Species   Ion     s      p      d      f     Total  Charge (e)
==============================================================
  O        1     1.87   5.00   0.00   0.00   6.86    -0.86
  O        2     1.87   5.00   0.00   0.00   6.86    -0.86
  O        3     1.87   5.00   0.00   0.00   6.86    -0.86
  O        4     1.87   5.00   0.00   0.00   6.86    -0.86
  O        5     1.87   5.00   0.00   0.00   6.86    -0.86
  O        6     1.87   5.00   0.00   0.00   6.86    -0.86
  O        7     1.87   5.00   0.00   0.00   6.86    -0.86
  O        8     1.87   5.00   0.00   0.00   6.86    -0.86
  O        9     1.85   4.94   0.00   0.00   6.80    -0.80
  O       10     1.85   4.94   0.00   0.00   6.80    -0.80
  O       11     1.85   4.94   0.00   0.00   6.80    -0.80
  O       12     1.85   4.94   0.00   0.00   6.80    -0.80
  O       13     1.85   4.94   0.00   0.00   6.80    -0.80
  O       14     1.85   4.94   0.00   0.00   6.80    -0.80
  O       15     1.85   4.94   0.00   0.00   6.80    -0.80
  O       16     1.85   4.94   0.00   0.00   6.80    -0.80
  O       17     1.85   4.94   0.00   0.00   6.80    -0.80
  O       18     1.85   4.94   0.00   0.00   6.80    -0.80
  O       19     1.85   4.94   0.00   0.00   6.80    -0.80
  O       20     1.85   4.94   0.00   0.00   6.80    -0.80
  O       21     1.85   4.94   0.00   0.00   6.80    -0.80
  O       22     1.85   4.94   0.00   0.00   6.80    -0.80
  O       23     1.85   4.94   0.00   0.00   6.80    -0.80
  O       24     1.85   4.94   0.00   0.00   6.80    -0.80
  O       25     1.85   4.94   0.00   0.00   6.80    -0.80
  O       26     1.85   4.94   0.00   0.00   6.80    -0.80
  O       27     1.85   4.94   0.00   0.00   6.80    -0.80
  O       28     1.85   4.94   0.00   0.00   6.80    -0.80
  O       29     1.85   4.94   0.00   0.00   6.80    -0.80
  O       30     1.85   4.94   0.00   0.00   6.80    -0.80
  O       31     1.85   4.94   0.00   0.00   6.80    -0.80
  O       32     1.85   4.94   0.00   0.00   6.80    -0.80
  O       33     1.85   4.94   0.00   0.00   6.80    -0.80
  O       34     1.85   4.94   0.00   0.00   6.80    -0.80
  O       35     1.85   4.94   0.00   0.00   6.80    -0.80
  O       36     1.85   4.94   0.00   0.00   6.80    -0.80
  O       37     1.85   4.94   0.00   0.00   6.80    -0.80
  O       38     1.85   4.94   0.00   0.00   6.80    -0.80
  O       39     1.85   4.94   0.00   0.00   6.80    -0.80
  O       40     1.85   4.94   0.00   0.00   6.80    -0.80
  O       41     1.85   4.94   0.00   0.00   6.80    -0.80
  O       42     1.85   4.94   0.00   0.00   6.80    -0.80
  O       43     1.85   4.94   0.00   0.00   6.80    -0.80
  O       44     1.85   4.94   0.00   0.00   6.80    -0.80
  O       45     1.85   4.94   0.00   0.00   6.80    -0.80
  O       46     1.85   4.94   0.00   0.00   6.80    -0.80
  O       47     1.85   4.94   0.00   0.00   6.80    -0.80
  O       48     1.85   4.94   0.00   0.00   6.80    -0.80
  O       49     1.85   4.94   0.00   0.00   6.80    -0.80
  O       50     1.85   4.94   0.00   0.00   6.80    -0.80
  O       51     1.85   4.94   0.00   0.00   6.80    -0.80
  O       52     1.85   4.94   0.00   0.00   6.80    -0.80
  O       53     1.85   4.94   0.00   0.00   6.80    -0.80
  O       54     1.85   4.94   0.00   0.00   6.80    -0.80
  O       55     1.85   4.94   0.00   0.00   6.80    -0.80
  O       56     1.85   4.94   0.00   0.00   6.80    -0.80
  Zr       1     2.38   6.48   1.93   0.00  10.79     1.21
  Zr       2     2.38   6.48   1.93   0.00  10.79     1.21
  Zr       3     2.38   6.48   1.93   0.00  10.79     1.21
  Zr       4     2.38   6.48   1.93   0.00  10.79     1.21
  Zr       5     2.38   6.48   1.93   0.00  10.79     1.21
  Zr       6     2.38   6.48   1.93   0.00  10.79     1.21
  Zr       7     2.38   6.48   1.93   0.00  10.79     1.21
  Zr       8     2.38   6.48   1.93   0.00  10.79     1.21
  Zr       9     2.38   6.48   1.93   0.00  10.79     1.21
  Zr      10     2.38   6.48   1.93   0.00  10.79     1.21
  Zr      11     2.38   6.48   1.93   0.00  10.79     1.21
  Zr      12     2.38   6.48   1.93   0.00  10.79     1.21
  Zr      13     2.38   6.48   1.93   0.00  10.79     1.21
  Zr      14     2.38   6.48   1.93   0.00  10.79     1.21
  Zr      15     2.38   6.48   1.93   0.00  10.79     1.21
  Zr      16     2.38   6.48   1.93   0.00  10.79     1.21
  La       1     2.07   6.13   1.19   0.00   9.39     1.61
  La       2     2.07   6.13   1.19   0.00   9.39     1.61
  La       3     2.07   6.13   1.19   0.00   9.39     1.61
  La       4     2.07   6.13   1.19   0.00   9.39     1.61
  La       5     2.07   6.13   1.19   0.00   9.39     1.61
  La       6     2.07   6.13   1.19   0.00   9.39     1.61
  La       7     2.07   6.13   1.19   0.00   9.39     1.61
  La       8     2.07   6.13   1.19   0.00   9.39     1.61
  La       9     2.07   6.13   1.19   0.00   9.39     1.61
  La      10     2.07   6.13   1.19   0.00   9.39     1.61
  La      11     2.07   6.13   1.19   0.00   9.39     1.61
  La      12     2.07   6.13   1.19   0.00   9.39     1.61
  La      13     2.07   6.13   1.19   0.00   9.39     1.61
  La      14     2.07   6.13   1.19   0.00   9.39     1.61
  La      15     2.07   6.13   1.19   0.00   9.39     1.61
  La      16     2.07   6.13   1.19   0.00   9.39     1.61
==============================================================
 
            Bond              Population      Length (A)
============================================================
         O 50 -- Zr 1              0.44        2.11915
         O 40 -- Zr 8              0.44        2.11915
         O 22 -- Zr 13             0.44        2.11915
         O 36 -- Zr 16             0.44        2.11915
         O 13 -- Zr 13             0.44        2.11915
         O 23 -- Zr 8              0.44        2.11915
         O 56 -- Zr 1              0.44        2.11915
         O 16 -- Zr 16             0.44        2.11915
         O 27 -- Zr 8              0.44        2.11915
         O 52 -- Zr 1              0.44        2.11915
         O 12 -- Zr 13             0.44        2.11915
         O 26 -- Zr 16             0.44        2.11915
         O 9  -- Zr 8              0.44        2.11915
         O 45 -- Zr 1              0.44        2.11915
         O 34 -- Zr 13             0.44        2.11915
         O 41 -- Zr 16             0.44        2.11915
         O 54 -- Zr 1              0.44        2.11915
         O 48 -- Zr 1              0.44        2.11915
         O 20 -- Zr 8              0.44        2.11915
         O 43 -- Zr 13             0.44        2.11915
         O 38 -- Zr 8              0.44        2.11915
         O 17 -- Zr 16             0.44        2.11915
         O 29 -- Zr 13             0.44        2.11915
         O 32 -- Zr 16             0.44        2.11915
         O 41 -- Zr 4              0.44        2.11916
         O 26 -- Zr 7              0.44        2.11916
         O 34 -- Zr 4              0.44        2.11916
         O 27 -- Zr 15             0.44        2.11916
         O 52 -- Zr 14             0.44        2.11916
         O 9  -- Zr 14             0.44        2.11916
         O 56 -- Zr 10             0.44        2.11916
         O 45 -- Zr 15             0.44        2.11916
         O 50 -- Zr 12             0.44        2.11916
         O 22 -- Zr 10             0.44        2.11916
         O 12 -- Zr 7              0.44        2.11916
         O 16 -- Zr 6              0.44        2.11916
         O 20 -- Zr 5              0.44        2.11916
         O 29 -- Zr 5              0.44        2.11916
         O 40 -- Zr 3              0.44        2.11916
         O 23 -- Zr 6              0.44        2.11916
         O 48 -- Zr 11             0.44        2.11916
         O 36 -- Zr 3              0.44        2.11916
         O 43 -- Zr 2              0.44        2.11916
         O 17 -- Zr 9              0.44        2.11916
         O 38 -- Zr 2              0.44        2.11916
         O 54 -- Zr 9              0.44        2.11916
         O 13 -- Zr 12             0.44        2.11916
         O 32 -- Zr 11             0.44        2.11916
         O 46 -- Zr 5              0.44        2.11921
         O 42 -- Zr 2              0.44        2.11921
         O 51 -- Zr 2              0.44        2.11921
         O 33 -- Zr 11             0.44        2.11921
         O 25 -- Zr 9              0.44        2.11921
         O 10 -- Zr 9              0.44        2.11921
         O 28 -- Zr 5              0.44        2.11921
         O 11 -- Zr 11             0.44        2.11921
         O 47 -- Zr 4              0.44        2.11921
         O 53 -- Zr 7              0.44        2.11921
         O 18 -- Zr 7              0.44        2.11921
         O 37 -- Zr 4              0.44        2.11921
         O 44 -- Zr 14             0.44        2.11921
         O 31 -- Zr 15             0.44        2.11921
         O 30 -- Zr 14             0.44        2.11921
         O 19 -- Zr 15             0.44        2.11921
         O 19 -- Zr 10             0.44        2.11921
         O 44 -- Zr 3              0.44        2.11921
         O 11 -- Zr 10             0.44        2.11921
         O 18 -- Zr 12             0.44        2.11921
         O 37 -- Zr 10             0.44        2.11921
         O 47 -- Zr 6              0.44        2.11921
         O 10 -- Zr 6              0.44        2.11921
         O 53 -- Zr 3              0.44        2.11921
         O 31 -- Zr 6              0.44        2.11921
         O 28 -- Zr 10             0.44        2.11921
         O 33 -- Zr 3              0.44        2.11921
         O 30 -- Zr 12             0.44        2.11921
         O 25 -- Zr 12             0.44        2.11921
         O 42 -- Zr 12             0.44        2.11921
         O 51 -- Zr 6              0.44        2.11921
         O 46 -- Zr 3              0.44        2.11921
         O 14 -- Zr 5              0.44        2.11921
         O 55 -- Zr 2              0.44        2.11921
         O 49 -- Zr 5              0.44        2.11921
         O 35 -- Zr 2              0.44        2.11921
         O 21 -- Zr 11             0.44        2.11921
         O 24 -- Zr 9              0.44        2.11921
         O 39 -- Zr 9              0.44        2.11921
         O 15 -- Zr 11             0.44        2.11921
         O 49 -- Zr 4              0.44        2.11921
         O 21 -- Zr 7              0.44        2.11921
         O 55 -- Zr 7              0.44        2.11921
         O 15 -- Zr 15             0.44        2.11921
         O 39 -- Zr 4              0.44        2.11921
         O 24 -- Zr 14             0.44        2.11921
         O 35 -- Zr 15             0.44        2.11921
         O 14 -- Zr 14             0.44        2.11921
         O 5  -- La 6              0.18        2.36445
         O 4  -- La 6              0.18        2.36445
         O 2  -- La 12             0.18        2.36445
         O 3  -- La 3              0.18        2.36445
         O 8  -- La 10             0.18        2.36445
         O 1  -- La 10             0.18        2.36445
         O 7  -- La 3              0.18        2.36445
         O 6  -- La 12             0.18        2.36445
         O 8  -- La 4              0.18        2.36445
         O 2  -- La 7              0.18        2.36445
         O 1  -- La 15             0.18        2.36445
         O 3  -- La 14             0.18        2.36445
         O 4  -- La 4              0.18        2.36445
         O 6  -- La 14             0.18        2.36445
         O 5  -- La 15             0.18        2.36445
         O 7  -- La 7              0.18        2.36445
         O 2  -- La 2              0.18        2.36445
         O 1  -- La 11             0.18        2.36445
         O 6  -- La 9              0.18        2.36445
         O 4  -- La 9              0.18        2.36445
         O 8  -- La 5              0.18        2.36445
         O 5  -- La 2              0.18        2.36445
         O 3  -- La 5              0.18        2.36445
         O 7  -- La 11             0.18        2.36445
         O 3  -- La 8              0.18        2.36461
         O 1  -- La 1              0.18        2.36461
         O 7  -- La 16             0.18        2.36461
         O 4  -- La 16             0.18        2.36461
         O 5  -- La 8              0.18        2.36461
         O 8  -- La 13             0.18        2.36461
         O 2  -- La 13             0.18        2.36461
         O 6  -- La 1              0.18        2.36461
         O 31 -- La 5              0.12        2.67824
         O 30 -- La 11             0.12        2.67824
         O 24 -- La 10             0.12        2.67824
         O 44 -- La 2              0.12        2.67824
         O 18 -- La 5              0.12        2.67824
         O 47 -- La 11             0.12        2.67824
         O 53 -- La 9              0.12        2.67824
         O 19 -- La 9              0.12        2.67824
         O 37 -- La 2              0.12        2.67824
         O 15 -- La 12             0.12        2.67824
         O 14 -- La 6              0.12        2.67824
         O 21 -- La 6              0.12        2.67824
         O 35 -- La 3              0.12        2.67824
         O 39 -- La 3              0.12        2.67824
         O 55 -- La 10             0.12        2.67824
         O 49 -- La 12             0.12        2.67824
         O 46 -- La 15             0.12        2.67824
         O 25 -- La 15             0.12        2.67824
         O 10 -- La 7              0.12        2.67824
         O 33 -- La 4              0.12        2.67824
         O 51 -- La 14             0.12        2.67824
         O 42 -- La 4              0.12        2.67824
         O 11 -- La 14             0.12        2.67824
         O 28 -- La 7              0.12        2.67824
         O 15 -- La 13             0.12        2.67827
         O 39 -- La 8              0.12        2.67827
         O 21 -- La 8              0.12        2.67827
         O 55 -- La 1              0.12        2.67827
         O 14 -- La 16             0.12        2.67827
         O 24 -- La 13             0.12        2.67827
         O 35 -- La 16             0.12        2.67827
         O 49 -- La 1              0.12        2.67827
         O 18 -- La 8              0.12        2.67827
         O 44 -- La 13             0.12        2.67827
         O 31 -- La 13             0.12        2.67827
         O 30 -- La 16             0.12        2.67827
         O 47 -- La 1              0.12        2.67827
         O 10 -- La 13             0.12        2.67827
         O 33 -- La 13             0.12        2.67827
         O 11 -- La 8              0.12        2.67827
         O 25 -- La 8              0.12        2.67827
         O 19 -- La 16             0.12        2.67827
         O 37 -- La 8              0.12        2.67827
         O 46 -- La 1              0.12        2.67827
         O 42 -- La 16             0.12        2.67827
         O 53 -- La 1              0.12        2.67827
         O 51 -- La 1              0.12        2.67827
         O 28 -- La 16             0.12        2.67827
         O 17 -- La 15             0.12        2.67835
         O 48 -- La 4              0.12        2.67835
         O 32 -- La 14             0.12        2.67835
         O 38 -- La 4              0.12        2.67835
         O 54 -- La 7              0.12        2.67835
         O 43 -- La 14             0.12        2.67835
         O 20 -- La 7              0.12        2.67835
         O 29 -- La 15             0.12        2.67835
         O 9  -- La 11             0.12        2.67835
         O 26 -- La 5              0.12        2.67835
         O 45 -- La 5              0.12        2.67835
         O 52 -- La 2              0.12        2.67835
         O 41 -- La 2              0.12        2.67835
         O 34 -- La 11             0.12        2.67835
         O 12 -- La 9              0.12        2.67835
         O 27 -- La 9              0.12        2.67835
         O 16 -- La 5              0.12        2.67835
         O 36 -- La 2              0.12        2.67835
         O 23 -- La 11             0.12        2.67835
         O 13 -- La 11             0.12        2.67835
         O 56 -- La 2              0.12        2.67835
         O 50 -- La 5              0.12        2.67835
         O 40 -- La 9              0.12        2.67835
         O 22 -- La 9              0.12        2.67835
         O 13 -- La 15             0.12        2.67835
         O 16 -- La 14             0.12        2.67835
         O 17 -- La 10             0.12        2.67835
         O 36 -- La 15             0.12        2.67835
         O 40 -- La 4              0.12        2.67835
         O 38 -- La 10             0.12        2.67835
         O 32 -- La 12             0.12        2.67835
         O 48 -- La 6              0.12        2.67835
         O 23 -- La 7              0.12        2.67835
         O 50 -- La 4              0.12        2.67835
         O 56 -- La 7              0.12        2.67835
         O 29 -- La 6              0.12        2.67835
         O 54 -- La 3              0.12        2.67835
         O 43 -- La 3              0.12        2.67835
         O 22 -- La 14             0.12        2.67835
         O 20 -- La 12             0.12        2.67835
         O 12 -- La 6              0.12        2.67835
         O 52 -- La 6              0.12        2.67835
         O 9  -- La 10             0.12        2.67835
         O 26 -- La 10             0.12        2.67835
         O 27 -- La 12             0.12        2.67835
         O 34 -- La 3              0.12        2.67835
         O 45 -- La 3              0.12        2.67835
         O 41 -- La 12             0.12        2.67835
         O 37 -- O 41             -0.03        2.81727
         O 34 -- O 47             -0.03        2.81727
         O 29 -- O 46             -0.03        2.81727
         O 17 -- O 25             -0.03        2.81727
         O 31 -- O 45             -0.03        2.81727
         O 18 -- O 26             -0.03        2.81727
         O 9  -- O 30             -0.03        2.81727
         O 20 -- O 28             -0.03        2.81727
         O 43 -- O 51             -0.03        2.81727
         O 12 -- O 53             -0.03        2.81727
         O 33 -- O 48             -0.03        2.81727
         O 44 -- O 52             -0.03        2.81727
         O 38 -- O 42             -0.03        2.81727
         O 10 -- O 54             -0.03        2.81727
         O 11 -- O 32             -0.03        2.81727
         O 19 -- O 27             -0.03        2.81727
         O 13 -- O 25             -0.03        2.81727
         O 11 -- O 22             -0.03        2.81727
         O 33 -- O 40             -0.03        2.81727
         O 28 -- O 56             -0.03        2.81727
         O 16 -- O 51             -0.03        2.81727
         O 42 -- O 50             -0.03        2.81727
         O 36 -- O 46             -0.03        2.81727
         O 10 -- O 23             -0.03        2.81727
         O 41 -- O 49             -0.03        2.81727
         O 12 -- O 21             -0.03        2.81727
         O 9  -- O 24             -0.03        2.81727
         O 26 -- O 55             -0.03        2.81727
         O 34 -- O 39             -0.03        2.81727
         O 15 -- O 27             -0.03        2.81727
         O 35 -- O 45             -0.03        2.81727
         O 14 -- O 52             -0.03        2.81727
         O 16 -- O 31             -0.03        2.81727
         O 19 -- O 22             -0.03        2.81727
         O 36 -- O 44             -0.03        2.81727
         O 13 -- O 30             -0.03        2.81727
         O 37 -- O 56             -0.03        2.81727
         O 23 -- O 47             -0.03        2.81727
         O 18 -- O 50             -0.03        2.81727
         O 40 -- O 53             -0.03        2.81727
         O 17 -- O 24             -0.03        2.81727
         O 14 -- O 29             -0.03        2.81727
         O 35 -- O 43             -0.03        2.81727
         O 38 -- O 55             -0.03        2.81727
         O 15 -- O 32             -0.03        2.81727
         O 21 -- O 48             -0.03        2.81727
         O 20 -- O 49             -0.03        2.81727
         O 39 -- O 54             -0.03        2.81727
         O 10 -- O 31             -0.03        2.81727
         O 33 -- O 44             -0.03        2.81727
         O 11 -- O 37             -0.03        2.81727
         O 19 -- O 28             -0.03        2.81727
         O 18 -- O 25             -0.03        2.81727
         O 30 -- O 42             -0.03        2.81727
         O 47 -- O 51             -0.03        2.81727
         O 46 -- O 53             -0.03        2.81727
         O 15 -- O 33             -0.03        2.81727
         O 14 -- O 28             -0.03        2.81727
         O 25 -- O 39             -0.03        2.81727
         O 51 -- O 55             -0.03        2.81727
         O 35 -- O 42             -0.03        2.81727
         O 10 -- O 24             -0.03        2.81727
         O 46 -- O 49             -0.03        2.81727
         O 11 -- O 21             -0.03        2.81727
         O 37 -- O 39             -0.03        2.81727
         O 18 -- O 21             -0.03        2.81727
         O 47 -- O 49             -0.03        2.81727
         O 15 -- O 31             -0.03        2.81727
         O 53 -- O 55             -0.03        2.81727
         O 24 -- O 44             -0.03        2.81727
         O 14 -- O 30             -0.03        2.81727
         O 19 -- O 35             -0.03        2.81727
         O 9  -- O 38             -0.03        2.81729
         O 12 -- O 29             -0.03        2.81729
         O 48 -- O 52             -0.03        2.81729
         O 45 -- O 54             -0.03        2.81729
         O 20 -- O 27             -0.03        2.81729
         O 17 -- O 26             -0.03        2.81729
         O 34 -- O 43             -0.03        2.81729
         O 32 -- O 41             -0.03        2.81729
         O 9  -- O 23             -0.03        2.81729
         O 45 -- O 50             -0.03        2.81729
         O 52 -- O 56             -0.03        2.81729
         O 36 -- O 41             -0.03        2.81729
         O 16 -- O 26             -0.03        2.81729
         O 27 -- O 40             -0.03        2.81729
         O 13 -- O 34             -0.03        2.81729
         O 12 -- O 22             -0.03        2.81729
         O 38 -- O 40             -0.03        2.81729
         O 48 -- O 50             -0.03        2.81729
         O 13 -- O 29             -0.03        2.81729
         O 17 -- O 36             -0.03        2.81729
         O 54 -- O 56             -0.03        2.81729
         O 20 -- O 23             -0.03        2.81729
         O 22 -- O 43             -0.03        2.81729
         O 16 -- O 32             -0.03        2.81729
============================================================
 

Writing analysis data to La2Zr2O7.castep_bin

Writing model to La2Zr2O7.check
 
 A BibTeX formatted list of references used in this run has been written to 
 La2Zr2O7.bib
 
Initialisation time =     40.90 s
Calculation time    =  25301.78 s
Finalisation time   =     54.36 s
Total time          =  25397.05 s
Peak Memory Use     = 2645784 kB
  
Overall parallel efficiency rating: Good (77%)                                  
  
Data was distributed by:-
G-vector (4-way); efficiency rating: Good (78%)                                 
k-point (14-way); efficiency rating: Excellent (97%)                            
