 +-------------------------------------------------+
 |                                                 |
 |      CCC   AA    SSS  TTTTT  EEEEE  PPPP        |
 |     C     A  A  S       T    E      P   P       |
 |     C     AAAA   SS     T    EEE    PPPP        |
 |     C     A  A     S    T    E      P           |
 |      CCC  A  A  SSS     T    EEEEE  P           |
 |                                                 |
 +-------------------------------------------------+
 |                                                 |
 | Welcome to Academic Release CASTEP version 16.11|          
 | Ab Initio Total Energy Program                  |
 |                                                 |
 | Authors:                                        |
 | M. Segall, M. Probert, C. Pickard, P. Hasnip,   |
 | S. Clark, K. Refson, J. R. Yates, M. Payne      |
 |                                                 |
 | Contributors:                                   |
 | P. Lindan, P. Haynes, J. White, V. Milman,      |
 | N. Govind, M. Gibson, P. Tulip, V. Cocula,      |
 | B. Montanari, D. Quigley, M. Glover,            |
 | L. Bernasconi, A. Perlov, M. Plummer,           |
 | E. McNellis, J. Meyer, J. Gale, D. Jochym       |
 | J. Aarons, B. Walker, R. Gillen, D. Jones       |
 | T. Green, I. J. Bush, C. J. Armstrong,          |
 | E. J. Higgins, E. L. Brown, M. S. McFly         |
 |                                                 |
 | Copyright (c) 2000 - 2015                       |
 |                                                 |
 |     Distributed under the terms of an           |
 |     Agreement between the United Kingdom        |
 |     Car-Parrinello (UKCP) Consortium,           |
 |     Daresbury Laboratory and Accelrys, Inc.     |
 |                                                 |
 | Please cite                                     |
 |                                                 |
 |     "First principles methods using CASTEP"     |
 |                                                 |
 |         Zeitschrift fuer Kristallographie       |
 |           220(5-6) pp. 567-570 (2005)           |
 |                                                 |
 | S. J. Clark, M. D. Segall, C. J. Pickard,       |
 | P. J. Hasnip, M. J. Probert, K. Refson,         |
 | M. C. Payne                                     |
 |                                                 |
 |       in all publications arising from          |
 |              your use of CASTEP                 |
 |                                                 |
 +-------------------------------------------------+
 
 
 Compiled for linux_x86_64_ifort16 on Sat, 23 Jul 2016 23:44:54 +0100
 from code version 
 203e84763863+ Castep161_branch Fri, 04 Mar 2016 19:21:07 +0000
 Compiler: Intel Fortran 16.0.3.210; Optimisation: fast
 MATHLIBS: Intel MKL(11.3.3) (LAPACK version 3.6.0)
 FFT Lib : mkl
 Fundamental constants values: CODATA 2010
 
 Run started: Sun, 24 Dec 2017 14:30:07 +0000
 +-------------------------------------------------+
 |                                                 |
 |           N   N    M   M    RRRR                |
 |           NN  N    MM MM    R   R               |
 |           N N N    M M M    RRRR                |
 |           N  NN    M   M    R  R                |
 |           N   N    M   M    R   R               |
 |                                                 |
 +-------------------------------------------------+
 |                                                 |
 | Welcome to Materials Studio CASTEP-NMR          |
 |                                                 |
 | Authors:                                        |
 | J.R. Yates, C.J. Pickard, F. Mauri              |
 |                                                 |
 | Contributors:                                   |
 | T.F.G. Green, S.A. Joyce                        |
 |                                                 |
 | Copyright (c) 2004 - 2015                       |
 |                                                 |
 | Please cite the appropriate publications in all |
 | work arising from your use of CASTEP NMR.       |
 |                                                 |
 | For NMR Shielding Tensors cite:                 |
 |    "All-electron magnetic response with         |
 |    pseudopotentials: NMR chemical shifts",      |
 |    C. J. Pickard, F. Mauri;                     |
 |    Physical Review B63 245101 (2001), and       |
 |                                                 |
 |    "Calculation of NMR Chemical Shifts          |
 |    for extended systems using                   |
 |    Ultrasoft Pseudopotentials",                 |
 |    J. R. Yates, C. J. Pickard and F. Mauri      |
 |    Physical Review B76 024401 (2007)            |
 |                                                 |
 | For Electric Field Gradients cite:              |
 |   "Accurate First Principles Prediction of 17O  |
 |    NMR Parameters in SiO2: Assignment of the    |
 |    Zeolite Ferrierite Spectrum"                 |
 |    M. Profeta, F. Mauri and C. J. Pickard       |
 |    J. Amer. Chem. Soc. 125 541 (2003)           |
 |                                                 |
 | For Spin-Spin (J) Couplings cite:               |
 |   "A first principles theory of NMR J-coupling  |
 |   in solid-state systems"                       |
 |   S.A. Joyce, J.R. Yates, C.J. Pickard, F. Mauri|
 |   J. Chem. Phys. 127 204107 (2007)              |
 |                                                 |
 |   "Relativistic NMR J-coupling with ultrasoft   |
 |   pseudopotentials and the zeroth-order regular |
 |   approximation"                                |
 |   T.F.G. Green and J.R. Yates                   |
 |   J. Chem. Phys. 140 234106 (2014)              |
 |                                                 |
 +-------------------------------------------------+
 
 
 Atomic calculation performed for O: 1s2 2s2 2p4
 
 Converged in 44 iterations to an ae energy of -2040.855 eV
 
 
 Atomic calculation performed for O: 1s2 2s2 2p4
 
 Exceeded max iterations: converged to 0.000000062 eV
 
   ============================================================                
   | Pseudopotential Report - Date of generation 24-12-2017   |                
   ------------------------------------------------------------                
   | Element: O Ionic charge:  6.00 Level of theory: PBE      |                
   | Atomic Solver: ZORA (scalar)                             |                
   |                                                          |                
   |               Reference Electronic Structure             |                
   |         Orbital         Occupation         Energy        |                
   |            2s              2.000           -0.881        |                
   |            2p              4.000           -0.332        |                
   |                                                          |                
   |                 Pseudopotential Definition               |                
   |        Beta     l      e      Rc     scheme   norm       |                
   |          1      0   -0.881   1.100     qc      0         |                
   |          2      0    0.250   1.100     qc      0         |                
   |          3      1   -0.332   1.100     qc      0         |                
   |          4      1    0.250   1.100     qc      0         |                
   |         loc     2    0.000   1.100     pn      0         |                
   |                                                          |                
   | Augmentation charge Rinner = 0.769                       |                
   | Partial core correction Rc = 0.769                       |                
   ------------------------------------------------------------                
   | "2|1.1|15|18|20|20:21(qc=7)"                             |                
   ------------------------------------------------------------                
   |      Author: Chris J. Pickard, Cambridge University      |                
   ============================================================                
 
 Atomic calculation performed for Zr: 1s2 2s2 2p6 3s2 3p6 3d10 4s2 4p6 4d2 5s2
 
 Converged in 53 iterations to an ae energy of -97719.888 eV
 
 
 Atomic calculation performed for Zr: 1s2 2s2 2p6 3s2 3p6 3d10 4s2 4p6 4d2 5s2
 
 Exceeded max iterations: converged to 0.000000970 eV
 
 Warning: ion_atom_descreen_psp: negative charge density encountered
   ============================================================                
   | Pseudopotential Report - Date of generation 24-12-2017   |                
   ------------------------------------------------------------                
   | Element: Zr Ionic charge: 12.00 Level of theory: PBE     |                
   | Atomic Solver: ZORA (scalar)                             |                
   |                                                          |                
   |               Reference Electronic Structure             |                
   |         Orbital         Occupation         Energy        |                
   |            4s              2.000           -2.003        |                
   |            4p              6.000           -1.193        |                
   |            5s              2.000           -0.163        |                
   |            4d              2.000           -0.132        |                
   |                                                          |                
   |                 Pseudopotential Definition               |                
   |        Beta     l      e      Rc     scheme   norm       |                
   |          1      0   -2.003   2.105     qc      0         |                
   |          2      0   -0.163   2.105     qc      0         |                
   |          3      0    0.250   2.105     qc      0         |                
   |          4      1   -1.193   2.105     qc      0         |                
   |          5      1    0.250   2.105     qc      0         |                
   |          6      2   -0.132   2.105     qc      0         |                
   |          7      2    0.250   2.105     qc      0         |                
   |         loc     3    0.000   2.105     pn      0         |                
   |                                                          |                
   | Augmentation charge Rinner = 1.471                       |                
   | Partial core correction Rc = 1.471                       |                
   ------------------------------------------------------------                
   | "3|2.1|7|8|9|40U:50:41:42"                               |                
   ------------------------------------------------------------                
   |      Author: Chris J. Pickard, Cambridge University      |                
   ============================================================                
 
 Atomic calculation performed for Sn:
 1s2 2s2 2p6 3s2 3p6 3d10 4s2 4p6 4d10 5s2 5p2
 
 Converged in 58 iterations to an ae energy of -167539.320 eV
 
 
 Atomic calculation performed for Sn:
 1s2 2s2 2p6 3s2 3p6 3d10 4s2 4p6 4d10 5s2 5p2
 
 Exceeded max iterations: converged to 0.000001154 eV
 
   ============================================================                
   | Pseudopotential Report - Date of generation 24-12-2017   |                
   ------------------------------------------------------------                
   | Element: Sn Ionic charge: 14.00 Level of theory: PBE     |                
   | Atomic Solver: ZORA (scalar)                             |                
   |                                                          |                
   |               Reference Electronic Structure             |                
   |         Orbital         Occupation         Energy        |                
   |            4d             10.000           -0.950        |                
   |            5s              2.000           -0.388        |                
   |            5p              2.000           -0.136        |                
   |                                                          |                
   |                 Pseudopotential Definition               |                
   |        Beta     l      e      Rc     scheme   norm       |                
   |          1      0   -0.388   2.199     qc      0         |                
   |          2      0    0.250   2.199     qc      0         |                
   |          3      1   -0.136   2.199     qc      0         |                
   |          4      1    0.250   2.199     qc      0         |                
   |          5      2   -0.950   2.199     qc      0         |                
   |          6      2    0.250   2.199     qc      0         |                
   |         loc     3    0.000   2.199     pn      0         |                
   |                                                          |                
   | Augmentation charge Rinner = 1.537                       |                
   | Partial core correction Rc = 1.537                       |                
   ------------------------------------------------------------                
   | "3|2.2|7|8|9|50:51:42"                                   |                
   ------------------------------------------------------------                
   |      Author: Chris J. Pickard, Cambridge University      |                
   ============================================================                
 
 Atomic calculation performed for La:
 1s2 2s2 2p6 3s2 3p6 3d10 4s2 4p6 4d10 5s2 5p6 5d1 6s2
 
 Converged in 56 iterations to an ae energy of -230121.495 eV
 
 
 Atomic calculation performed for La:
 1s2 2s2 2p6 3s2 3p6 3d10 4s2 4p6 4d10 5s2 5p6 5d1 6s2
 
 Exceeded max iterations: converged to 0.000000907 eV
 
 Warning: ion_atom_descreen_psp: negative charge density encountered
   ============================================================                
   | Pseudopotential Report - Date of generation 24-12-2017   |                
   ------------------------------------------------------------                
   | Element: La Ionic charge: 11.00 Level of theory: PBE     |                
   | Atomic Solver: ZORA (scalar)                             |                
   |                                                          |                
   |               Reference Electronic Structure             |                
   |         Orbital         Occupation         Energy        |                
   |            5s              2.000           -1.430        |                
   |            5p              6.000           -0.823        |                
   |            6s              2.000           -0.135        |                
   |            5d              1.000           -0.114        |                
   |                                                          |                
   |                 Pseudopotential Definition               |                
   |        Beta     l      e      Rc     scheme   norm       |                
   |          1      0   -1.430   2.298     qc      0         |                
   |          2      0   -0.135   2.298     qc      0         |                
   |          3      0    0.250   2.298     qc      0         |                
   |          4      1   -0.823   2.298     qc      0         |                
   |          5      1    0.250   2.298     qc      0         |                
   |          6      2   -0.114   2.298     qc      0         |                
   |          7      2    0.250   2.298     qc      0         |                
   |         loc     2    0.000   2.298     pn      0         |                
   |                                                          |                
   | Augmentation charge Rinner = 1.606                       |                
   | Partial core correction Rc = 1.606                       |                
   ------------------------------------------------------------                
   | "2|2.3|5|6|7|50U:60:51:52(qc=4.5)"                       |                
   ------------------------------------------------------------                
   |      Author: Chris J. Pickard, Cambridge University      |                
   ============================================================                
 
 Pseudo atomic calculation performed for O 2s2 2p4
 
 Converged in 39 iterations to a total energy of -432.6554 eV
 
 
 Pseudo atomic calculation performed for Zr 4s2 4p6 4d2 5s2
 
 Converged in 38 iterations to a total energy of -1285.4931 eV
 
 
 Pseudo atomic calculation performed for Sn 4d10 5s2 5p2
 
 Converged in 48 iterations to a total energy of -2044.5414 eV
 
 
 Pseudo atomic calculation performed for La 5s2 5p6 5d1 6s2
 
 Converged in 34 iterations to a total energy of -968.0372 eV
 
 Calculation parallelised over 56 processes.
 Data is distributed by G-vector(4-way) and k-point(14-way)

 ************************************ Title ************************************
 nmr testing

 ***************************** General Parameters ******************************
  
 output verbosity                               : normal  (1)
 write checkpoint data to                       : 08.check
 type of calculation                            : Magnetic Resonance
 stress calculation                             : on
 density difference calculation                 : off
 electron localisation func (ELF) calculation   : off
 Hirshfeld analysis                             : off
 unlimited duration calculation
 timing information                             : on
 memory usage estimate                          : on
 write final potential to formatted file        : off
 write final density to formatted file          : off
 write structure in CIF formatted file          : on
 write structure in CELL formatted file         : on
 write BibTeX reference list                    : on
 write OTFG pseudopotential files               : on
 checkpoint writing                             : both castep_bin and check files
  
 output         length unit                     : A
 output           mass unit                     : amu
 output           time unit                     : ps
 output         charge unit                     : e
 output           spin unit                     : hbar/2
 output         energy unit                     : eV
 output          force unit                     : eV/A
 output       velocity unit                     : A/ps
 output       pressure unit                     : GPa
 output     inv_length unit                     : 1/A
 output      frequency unit                     : cm-1
 output force constant unit                     : eV/A**2
 output         volume unit                     : A**3
 output   IR intensity unit                     : (D/A)**2/amu
 output         dipole unit                     : D
 output         efield unit                     : eV/A/e
 output        entropy unit                     : J/mol/K
  
 wavefunctions paging                           : none
 random number generator seed                   : randomised (143008918)
 data distribution                              : optimal for this architecture
 optimization strategy                          : maximize speed(+++)

 *********************** Exchange-Correlation Parameters ***********************
  
 using functional                               : Perdew Burke Ernzerhof
 relativistic treatment                         : ZORA
 DFT+D: Semi-empirical dispersion correction    : off

 ************************* Pseudopotential Parameters **************************
  
 pseudopotential representation                 : reciprocal space
 <beta|phi> representation                      : reciprocal space
 spin-orbit coupling                            : off

 **************************** Basis Set Parameters *****************************
  
 plane wave basis set cut-off                   :   816.3416   eV
 size of standard grid                          :     1.7500
 size of   fine   gmax                          :    25.6161   1/A
 finite basis set correction                    : automatic
 number of sample energies                      :          3
           sample  spacing                      :     5.0000   eV

 **************************** Electronic Parameters ****************************
  
 number of  electrons                           :  712.0    
 net charge of system                           :  0.000    
 treating system as non-spin-polarized
 number of bands                                :        427

 ********************* Electronic Minimization Parameters **********************
  
 Method: Treating system as metallic with density mixing treatment of electrons,
         and number of  SD  steps               :          1
         and number of  CG  steps               :          4
  
 total energy / atom convergence tol.           : 0.1000E-08   eV
 eigen-energy convergence tolerance             : 0.2472E-09   eV
 max force / atom convergence tol.              : ignored
 convergence tolerance window                   :          3   cycles
 max. number of SCF cycles                      :         50
 number of fixed-spin iterations                :         10
 smearing scheme                                : Gaussian
 smearing width                                 : 0.2000       eV
 Fermi energy convergence tolerance             : 0.2721E-13   eV
 periodic dipole correction                     : NONE

 ************************** Density Mixing Parameters **************************
  
 density-mixing scheme                          : Broyden
 max. length of mixing history                  :         20
 charge density mixing amplitude                : 0.8000    
 cut-off energy for mixing                      :  816.3       eV

 *********************** Population Analysis Parameters ************************
  
 Population analysis with cutoff                :  3.000       A

 ************************ Magnetic Resonance Parameters ************************
  
 Magnetic Resonance Property                    : Chemical Shielding + EFG
 Position Operator Method                       : crystal
 max. number of MagRes CG steps                 :        250
 convergence tolerance window                   :          2   cycles
 energy convergence tolerance                   : 0.1000E-11   eV
 band convergence tolerance                     : 0.1000E-08   eV

 *******************************************************************************
  
 
                           -------------------------------
                                      Unit Cell
                           -------------------------------
        Real Lattice(A)                      Reciprocal Lattice(1/A)
  10.9107565   0.0000240  -0.0075096        0.5758710  -0.0000013   0.0003963
   0.0000241  10.9135003   0.0003122       -0.0000013   0.5757259  -0.0000165
  -0.0075090   0.0003120  10.9103750        0.0003964  -0.0000165   0.5758911
 
                       Lattice parameters(A)       Cell Angles
                    a =   10.910759          alpha =   89.996723
                    b =   10.913500          beta  =   90.078869
                    c =   10.910378          gamma =   89.999749
 
                       Current cell volume = 1299.147310       A**3
 
                           -------------------------------
                                     Cell Contents
                           -------------------------------
                         Total number of ions in cell =   88
                      Total number of species in cell =    4
                        Max number of any one species =   56
 
            xxxxxxxxxxxxxxxxxxxxxxxxxxxxxxxxxxxxxxxxxxxxxxxxxxxxxxxxxxxx
            x  Element    Atom        Fractional coordinates of atoms  x
            x            Number           u          v          w      x
            x----------------------------------------------------------x
            x  O            1         0.125065   0.124822   0.125029   x 
            x  O            2         0.624914   0.125112   0.624974   x 
            x  O            3         0.125062   0.625147   0.625023   x 
            x  O            4         0.624949   0.625143   0.124990   x 
            x  O            5         0.874938   0.374853   0.374977   x 
            x  O            6         0.874935   0.875178   0.874971   x 
            x  O            7         0.375051   0.374857   0.875010   x 
            x  O            8         0.375086   0.874888   0.375026   x 
            x  O            9         0.420179   0.125529   0.124791   x 
            x  O           10         0.330556   0.125127   0.624963   x 
            x  O           11         0.829040   0.625011   0.626489   x 
            x  O           12         0.920243   0.624740   0.123782   x 
            x  O           13         0.124778   0.419635   0.124871   x 
            x  O           14         0.624602   0.329908   0.124514   x 
            x  O           15         0.625349   0.830468   0.625176   x 
            x  O           16         0.124368   0.921247   0.624212   x 
            x  O           17         0.124144   0.124897   0.420947   x 
            x  O           18         0.125737   0.624951   0.329397   x 
            x  O           19         0.626218   0.624506   0.829110   x 
            x  O           20         0.624948   0.125397   0.919930   x 
            x  O           21         0.875233   0.669831   0.375145   x 
            x  O           22         0.875222   0.580365   0.875129   x 
            x  O           23         0.375054   0.079895   0.874874   x 
            x  O           24         0.374651   0.169532   0.374824   x 
            x  O           25         0.170960   0.374989   0.373511   x 
            x  O           26         0.079418   0.875206   0.375712   x 
            x  O           27         0.579821   0.874471   0.875209   x 
            x  O           28         0.670494   0.375516   0.874496   x 
            x  O           29         0.876241   0.375295   0.079440   x 
            x  O           30         0.373782   0.375494   0.170890   x 
            x  O           31         0.374575   0.874653   0.669846   x 
            x  O           32         0.875856   0.875103   0.579053   x 
            x  O           33         0.669444   0.874873   0.375037   x 
            x  O           34         0.079757   0.375260   0.876218   x 
            x  O           35         0.375398   0.670092   0.875486   x 
            x  O           36         0.875632   0.078753   0.375788   x 
            x  O           37         0.874263   0.375049   0.670603   x 
            x  O           38         0.375052   0.874603   0.080070   x 
            x  O           39         0.124767   0.330169   0.624855   x 
            x  O           40         0.624946   0.920105   0.125126   x 
            x  O           41         0.920582   0.124794   0.624288   x 
            x  O           42         0.329506   0.624484   0.125504   x 
            x  O           43         0.123759   0.624705   0.920560   x 
            x  O           44         0.625425   0.125347   0.330154   x 
            x  O           45         0.419789   0.625373   0.624361   x 
            x  O           46         0.829987   0.125878   0.125932   x 
            x  O           47         0.125419   0.125590   0.830402   x 
            x  O           48         0.624360   0.625405   0.419546   x 
            x  O           49         0.874787   0.169342   0.874604   x 
            x  O           50         0.374115   0.579178   0.374241   x 
            x  O           51         0.170013   0.874122   0.874068   x 
            x  O           52         0.580211   0.374627   0.375639   x 
            x  O           53         0.874581   0.874410   0.169598   x 
            x  O           54         0.375640   0.374595   0.580454   x 
            x  O           55         0.125213   0.830658   0.125396   x 
            x  O           56         0.625885   0.420822   0.625759   x 
            x  Zr           1         0.500000   0.500000   0.500000   x 
            x  Zr           2         0.249116   0.749323   0.000517   x 
            x  Zr           3         0.750134   0.999704   0.250824   x 
            x  Zr           4         0.999803   0.250026   0.750537   x 
            x  Zr           5         0.750884   0.250677   0.999483   x 
            x  Zr           6         0.249866   0.000296   0.749176   x 
            x  Zr           7         0.000197   0.749974   0.249463   x 
            x  Zr           8         0.500000   0.000000  -0.000000   x 
            x  Zr           9         0.250116   0.249894   0.499904   x 
            x  Zr          10         0.749884   0.750106   0.500096   x 
            x  Zr          11         0.499592   0.250534   0.250436   x 
            x  Zr          12         0.500408   0.749466   0.749564   x 
            x  Sn           1         0.750689   0.499502   0.750761   x 
            x  Sn           2         0.249311   0.500498   0.249239   x 
            x  Sn           3         0.000000   0.500000   0.000000   x 
            x  Sn           4        -0.000000   0.000000   0.500000   x 
            x  La           1        -0.000000  -0.000000   0.000000   x 
            x  La           2         0.749611   0.250111   0.499865   x 
            x  La           3         0.250318   0.499819   0.749633   x 
            x  La           4         0.500260   0.750192   0.250090   x 
            x  La           5         0.250389   0.749889   0.500135   x 
            x  La           6         0.749682   0.500181   0.250367   x 
            x  La           7         0.499740   0.249808   0.749910   x 
            x  La           8        -0.000000   0.500000   0.500000   x 
            x  La           9         0.749935   0.750536   0.000334   x 
            x  La          10         0.250276   0.999856   0.249758   x 
            x  La          11         0.250065   0.249464   0.999666   x 
            x  La          12         0.749724   0.000144   0.750242   x 
            x  La          13         0.500000  -0.000000   0.500000   x 
            x  La          14         0.000258   0.750274   0.750216   x 
            x  La          15         0.999742   0.249726   0.249784   x 
            x  La          16         0.500000   0.500000   0.000000   x 
            xxxxxxxxxxxxxxxxxxxxxxxxxxxxxxxxxxxxxxxxxxxxxxxxxxxxxxxxxxxx
 
 
                         No user defined ionic velocities
 
                           -------------------------------
                                   Details of Species
                           -------------------------------
 
                               Mass of species in AMU
                                    O   15.9994000
                                    Zr   91.2240000
                                    Sn  118.7100000
                                    La  138.9055000
 
                          Electric Quadrupole Moment (Barn)
                                    O   -0.0255800 Isotope 17
                                    Zr   -0.1760000 Isotope 91
                                    Sn    1.0000000 No Isotope Defined
                                    La    0.2000000 Isotope139
 
                          Files used for pseudopotentials:
                                    O 2|1.1|15|18|20|20:21(qc=7)
                                    Zr 3|2.1|7|8|9|40U:50:41:42
                                    Sn 3|2.2|7|8|9|50:51:42
                                    La 2|2.3|5|6|7|50U:60:51:52(qc=4.5)
 
                           -------------------------------
                              k-Points For BZ Sampling
                           -------------------------------
                       MP grid size for SCF calculation is  3  3  3
                            with an offset of   0.000  0.000  0.000
                       Number of kpoints used =            14
 
                           -------------------------------
                               Symmetry and Constraints
                           -------------------------------
 
                      Maximum deviation from symmetry =  0.00000         ANG
 
         There are no symmetry operations specified or generated for this cell
                      Number of ionic constraints     =           3
                      Point group of crystal =     1: C1, 1, 1
                      Space group of crystal =     2: P-1, -P 1
 
 
                         Centre of mass is constrained
             Set iprint > 1 for details of linear ionic constraints
 
                         Number of cell constraints= 0
                         Cell constraints are:  1 2 3 4 5 6
 
                         External pressure/stress (GPa)
                          0.00000   0.00000   0.00000
                                    0.00000   0.00000
                                              0.00000
  
+---------------- MEMORY AND SCRATCH DISK ESTIMATES PER PROCESS --------------+
|                                                     Memory          Disk    |
| Baseline code, static data and system overhead      322.0 MB         0.0 MB |
| BLAS internal memory storage                          0.0 MB         0.0 MB |
| Model and support data                             1320.0 MB         0.0 MB |
| Electronic energy minimisation requirements         378.8 MB         0.0 MB |
| Force calculation requirements                       24.1 MB         0.0 MB |
| Stress calculation requirements                      28.3 MB         0.0 MB |
|                                               ----------------------------- |
| Approx. total storage required per process         2020.8 MB         0.0 MB |
|                                                                             |
| Requirements will fluctuate during execution and may exceed these estimates |
+-----------------------------------------------------------------------------+
Calculating finite basis set correction with  3 cut-off energies.
Calculating total energy with cut-off of  806.342eV.
------------------------------------------------------------------------ <-- SCF
SCF loop      Energy           Fermi           Energy gain       Timer   <-- SCF
                               energy          per atom          (sec)   <-- SCF
------------------------------------------------------------------------ <-- SCF
Initial  -5.24282595E+004  0.00000000E+000                        75.05  <-- SCF
      1  -6.15146115E+004  7.73497009E+000   1.03253999E+002     219.46  <-- SCF
      2  -6.40987638E+004  7.58023224E+000   2.93653675E+001     312.57  <-- SCF
      3  -6.41739912E+004  7.14329512E+000   8.54856812E-001     418.05  <-- SCF
      4  -6.41720340E+004  7.83347793E+000  -2.22407178E-002     549.29  <-- SCF
      5  -6.40589842E+004  7.59291851E+000  -1.28465733E+000     676.81  <-- SCF
      6  -6.40608487E+004  7.53682353E+000   2.11879147E-002     835.34  <-- SCF
      7  -6.40606507E+004  7.59355969E+000  -2.24982884E-003     968.69  <-- SCF
      8  -6.40606897E+004  7.59753545E+000   4.42735079E-004    1127.17  <-- SCF
      9  -6.40607075E+004  7.60099561E+000   2.02177498E-004    1276.76  <-- SCF
     10  -6.40607097E+004  7.59797392E+000   2.56819861E-005    1421.68  <-- SCF
     11  -6.40607088E+004  7.60010364E+000  -1.12468832E-005    1563.84  <-- SCF
     12  -6.40607091E+004  7.60038130E+000   3.93164176E-006    1719.38  <-- SCF
     13  -6.40607091E+004  7.60006390E+000   4.75672936E-007    1858.24  <-- SCF
     14  -6.40607091E+004  7.59990479E+000  -1.36830709E-007    1991.38  <-- SCF
     15  -6.40607091E+004  7.59962824E+000  -2.73074200E-008    2131.98  <-- SCF
     16  -6.40607091E+004  7.59939816E+000  -8.36981136E-009    2257.42  <-- SCF
     17  -6.40607091E+004  7.59933607E+000   1.67671837E-009    2375.90  <-- SCF
     18  -6.40607091E+004  7.59930211E+000  -6.68353103E-010    2474.16  <-- SCF
     19  -6.40607091E+004  7.59927369E+000   1.49757217E-010    2567.32  <-- SCF
------------------------------------------------------------------------ <-- SCF
 
Final energy, E             =  -64060.70912596     eV
Final free energy (E-TS)    =  -64060.70912596     eV
(energies not corrected for finite basis set)
 
NB est. 0K energy (E-0.5TS)      =  -64060.70912596     eV
 
Calculating total energy with cut-off of  811.342eV.
------------------------------------------------------------------------ <-- SCF
SCF loop      Energy           Fermi           Energy gain       Timer   <-- SCF
                               energy          per atom          (sec)   <-- SCF
------------------------------------------------------------------------ <-- SCF
Initial  -6.40607091E+004  0.00000000E+000                      2602.72  <-- SCF
      1  -6.40607116E+004  7.59924020E+000   2.79106891E-005    2712.22  <-- SCF
      2  -6.40607116E+004  7.59924020E+000   1.98129502E-010    2804.77  <-- SCF
      3  -6.40607116E+004  7.59924369E+000   1.64912929E-008    2895.53  <-- SCF
      4  -6.40607116E+004  7.59925809E+000   5.22955016E-010    2983.50  <-- SCF
      5  -6.40607116E+004  7.59925783E+000  -5.58249909E-011    3071.80  <-- SCF
------------------------------------------------------------------------ <-- SCF
 
Final energy, E             =  -64060.71158360     eV
Final free energy (E-TS)    =  -64060.71158360     eV
(energies not corrected for finite basis set)
 
NB est. 0K energy (E-0.5TS)      =  -64060.71158360     eV
 
Calculating total energy with cut-off of  816.342eV.
------------------------------------------------------------------------ <-- SCF
SCF loop      Energy           Fermi           Energy gain       Timer   <-- SCF
                               energy          per atom          (sec)   <-- SCF
------------------------------------------------------------------------ <-- SCF
Initial  -6.40607116E+004  0.00000000E+000                      3107.23  <-- SCF
      1  -6.40607144E+004  7.59928119E+000   3.25194129E-005    3218.74  <-- SCF
      2  -6.40607144E+004  7.59928119E+000   1.99254439E-010    3307.08  <-- SCF
      3  -6.40607144E+004  7.59926615E+000   1.99556765E-008    3395.65  <-- SCF
      4  -6.40607144E+004  7.59926764E+000   6.25464885E-010    3482.80  <-- SCF
      5  -6.40607144E+004  7.59926102E+000  -1.53272645E-011    3570.45  <-- SCF
------------------------------------------------------------------------ <-- SCF
 
Final energy, E             =  -64060.71444714     eV
Final free energy (E-TS)    =  -64060.71444714     eV
(energies not corrected for finite basis set)
 
NB est. 0K energy (E-0.5TS)      =  -64060.71444714     eV
 
 For future reference: finite basis dEtot/dlog(Ecut) =      -0.435918eV
 Total energy corrected for finite basis set =  -64060.714442 eV
 
  =====================================================================
  +       Calculation of Nuclear Magnetic Resonance Parameters        +
  + ================================================================= +
 
  Starting Calculation of Electric Field Gradient Tensors         |<-- EFG
  +---------------- MEMORY AND SCRATCH DISK ESTIMATES PER PROCESS --------------+
  |                                                     Memory          Disk    |
  | Model and support data                             1317.8 MB         0.0 MB |
  | NMR EFG calculation requirements                    364.4 MB         0.0 MB |
  |                                               ----------------------------- |
  | Approx. total storage required per process         1682.2 MB         0.0 MB |
  |                                                                             |
  | Requirements will fluctuate during execution and may exceed these estimates |
  +-----------------------------------------------------------------------------+
  Total Time for EFG Tensors                     433.02 sec       |<-- EFG
 
  Starting Calculation of Chemical Shielding Tensors              |<-- NMR
  +---------------- MEMORY AND SCRATCH DISK ESTIMATES PER PROCESS --------------+
  |                                                     Memory          Disk    |
  | Model and support data                             1317.8 MB         0.0 MB |
  | NMR chemical shift calculation requirements         559.7 MB         0.0 MB |
  |                                               ----------------------------- |
  | Approx. total storage required per process         1877.5 MB         0.0 MB |
  |                                                                             |
  | Requirements will fluctuate during execution and may exceed these estimates |
  +-----------------------------------------------------------------------------+
  Starting k-point:   1 of   1                                    |<-- NMR
  Total Time for step 1 of 6:                   3250.49 sec       |<-- NMR
  Total Time for step 2 of 6:                   3246.97 sec       |<-- NMR
  Total Time for step 3 of 6:                   3263.55 sec       |<-- NMR
  Total Time for step 4 of 6:                   3267.96 sec       |<-- NMR
  Total Time for step 5 of 6:                   3259.53 sec       |<-- NMR
  Total Time for step 6 of 6:                   3252.85 sec       |<-- NMR
  Total Time for Chemical Shielding Tensors    28677.86 sec       |<-- NMR
 
  ========================================================================
  |           Chemical Shielding and Electric Field Gradient Tensors     |
  |----------------------------------------------------------------------|
  |     Nucleus                Shielding tensor             EFG Tensor   |
  |  Species       Ion    Iso(ppm)   Aniso(ppm)  Asym    Cq(MHz)    Eta  |
  |    O           1     -316.40      -8.25      0.82  -3.254E-02   0.44 |
  |    O           2     -316.11       6.99      0.75  -2.899E-02   0.86 |
  |    O           3     -316.16      12.65      0.90   6.943E-02   0.70 |
  |    O           4     -316.52     -15.52      0.74   5.944E-02   0.78 |
  |    O           5     -316.16      12.65      0.90   6.943E-02   0.70 |
  |    O           6     -316.40      -8.25      0.82  -3.254E-02   0.44 |
  |    O           7     -316.52     -15.52      0.74   5.944E-02   0.78 |
  |    O           8     -316.11       6.98      0.75  -2.899E-02   0.86 |
  |    O           9     -164.86     153.29      0.78   1.077E+00   0.89 |
  |    O          10     -166.79     160.70      0.80   1.045E+00   0.99 |
  |    O          11      -84.09      85.46      0.15  -3.146E+00   0.10 |
  |    O          12      -88.41      79.31      0.07  -3.242E+00   0.11 |
  |    O          13       -6.82      70.68      0.29   3.930E+00   0.80 |
  |    O          14     -162.08     143.19      0.79   1.076E+00   0.74 |
  |    O          15     -165.63     156.28      0.83   1.061E+00   0.92 |
  |    O          16      -86.65      92.04      0.16  -3.228E+00   0.12 |
  |    O          17      -85.58      93.98      0.28  -3.145E+00   0.11 |
  |    O          18      -87.16      93.25      0.30  -3.182E+00   0.11 |
  |    O          19      -86.03      82.18      0.07  -3.185E+00   0.12 |
  |    O          20     -165.59     151.72      0.78   1.047E+00   0.91 |
  |    O          21     -161.14     144.42      0.84   1.087E+00   0.75 |
  |    O          22       -6.82      70.68      0.29   3.930E+00   0.80 |
  |    O          23     -166.30     155.06      0.77   1.071E+00   0.96 |
  |    O          24     -165.63     156.28      0.83   1.061E+00   0.92 |
  |    O          25      -84.09      85.47      0.15  -3.146E+00   0.10 |
  |    O          26      -86.87      90.36      0.26  -3.167E+00   0.11 |
  |    O          27     -164.86     153.29      0.78   1.077E+00   0.89 |
  |    O          28      -89.08      90.34      0.19  -3.222E+00   0.12 |
  |    O          29      -87.70      85.40      0.09  -3.221E+00   0.10 |
  |    O          30      -86.03      82.18      0.07  -3.185E+00   0.12 |
  |    O          31     -164.72     153.12      0.77   1.048E+00   0.91 |
  |    O          32      -85.58      93.98      0.28  -3.145E+00   0.11 |
  |    O          33     -166.79     160.70      0.80   1.045E+00   0.99 |
  |    O          34      -88.41      79.31      0.07  -3.242E+00   0.11 |
  |    O          35     -162.08     143.19      0.79   1.076E+00   0.74 |
  |    O          36      -86.65      92.04      0.16  -3.228E+00   0.12 |
  |    O          37      -87.16      93.25      0.30  -3.182E+00   0.11 |
  |    O          38     -165.59     151.72      0.78   1.047E+00   0.91 |
  |    O          39     -161.14     144.42      0.84   1.087E+00   0.75 |
  |    O          40     -166.30     155.05      0.77   1.071E+00   0.96 |
  |    O          41      -86.87      90.36      0.26  -3.167E+00   0.11 |
  |    O          42      -89.08      90.34      0.19  -3.222E+00   0.12 |
  |    O          43      -87.70      85.40      0.09  -3.221E+00   0.10 |
  |    O          44     -164.72     153.12      0.77   1.048E+00   0.91 |
  |    O          45     -163.33     155.62      0.82   1.096E+00   0.86 |
  |    O          46     -162.76     147.96      0.79   1.067E+00   0.81 |
  |    O          47     -165.01     156.80      0.81   1.067E+00   0.89 |
  |    O          48     -163.99     154.48      0.81   1.065E+00   0.89 |
  |    O          49     -166.01     157.51      0.86   1.067E+00   0.90 |
  |    O          50      -90.65      85.22      0.16  -3.198E+00   0.14 |
  |    O          51     -162.76     147.95      0.79   1.067E+00   0.81 |
  |    O          52     -163.33     155.62      0.82   1.096E+00   0.86 |
  |    O          53     -165.01     156.80      0.81   1.067E+00   0.89 |
  |    O          54     -163.99     154.48      0.81   1.065E+00   0.89 |
  |    O          55     -166.01     157.52      0.86   1.067E+00   0.90 |
  |    O          56      -90.65      85.21      0.16  -3.198E+00   0.14 |
  |    Zr          1     1633.14    -130.55      0.13  -3.951E+01   0.09 |
  |    Zr          2     1622.91    -124.45      0.18  -3.921E+01   0.00 |
  |    Zr          3     1628.57    -124.45      0.01  -4.050E+01   0.03 |
  |    Zr          4     1626.34    -127.56      0.16  -3.835E+01   0.08 |
  |    Zr          5     1622.91    -124.45      0.18  -3.921E+01   0.00 |
  |    Zr          6     1628.57    -124.45      0.01  -4.050E+01   0.03 |
  |    Zr          7     1626.34    -127.56      0.16  -3.835E+01   0.08 |
  |    Zr          8     1623.96    -120.82      0.12  -4.128E+01   0.07 |
  |    Zr          9     1632.32    -127.51      0.05  -3.911E+01   0.02 |
  |    Zr         10     1632.32    -127.51      0.05  -3.911E+01   0.02 |
  |    Zr         11     1629.48    -125.48      0.10  -4.005E+01   0.09 |
  |    Zr         12     1629.48    -125.48      0.10  -4.005E+01   0.09 |
  |    Sn          1     3252.83     -47.17      0.15   1.293E+02   0.03 |
  |    Sn          2     3252.83     -47.17      0.15   1.293E+02   0.03 |
  |    Sn          3     3259.89     -60.49      0.14   1.290E+02   0.10 |
  |    Sn          4     3246.48     -38.95      0.36   1.307E+02   0.15 |
  |    La          1     4801.83     957.71      0.01  -8.776E+01   0.04 |
  |    La          2     4704.95     772.65      0.05  -8.108E+01   0.05 |
  |    La          3     4759.35     861.20      0.05  -8.536E+01   0.07 |
  |    La          4     4751.43     870.83      0.05  -8.271E+01   0.06 |
  |    La          5     4704.95     772.65      0.05  -8.108E+01   0.05 |
  |    La          6     4759.35     861.20      0.05  -8.536E+01   0.07 |
  |    La          7     4751.43     870.83      0.05  -8.271E+01   0.06 |
  |    La          8     4716.47     774.15      0.10  -8.328E+01   0.12 |
  |    La          9     4703.24     754.82      0.05  -7.987E+01   0.08 |
  |    La         10     4757.30     871.84      0.04  -8.457E+01   0.03 |
  |    La         11     4703.24     754.82      0.05  -7.987E+01   0.08 |
  |    La         12     4757.30     871.84      0.04  -8.457E+01   0.03 |
  |    La         13     4801.29     963.85      0.01  -8.603E+01   0.02 |
  |    La         14     4657.08     666.23      0.10  -7.821E+01   0.13 |
  |    La         15     4657.08     666.23      0.10  -7.821E+01   0.13 |
  |    La         16     4713.16     785.19      0.12  -8.252E+01   0.14 |
  ========================================================================
 
 *********************** Forces ***********************
 *                                                    *
 *            Cartesian components (eV/A)             *
 * -------------------------------------------------- *
 *                   x            y            z      *
 *                                                    *
 * O         1     -0.00263     -0.00193     -0.00499 *
 * O         2     -0.00708      0.00126     -0.00427 *
 * O         3      0.00675      0.00140      0.00175 *
 * O         4      0.00148      0.00396      0.00646 *
 * O         5     -0.00675     -0.00140     -0.00175 *
 * O         6      0.00263      0.00193      0.00499 *
 * O         7     -0.00148     -0.00396     -0.00646 *
 * O         8      0.00708     -0.00126      0.00427 *
 * O         9      0.00817      0.00596      0.00576 *
 * O        10     -0.01124     -0.00304     -0.00506 *
 * O        11      0.00290     -0.01678      0.02020 *
 * O        12      0.00339     -0.02566     -0.02120 *
 * O        13     -0.00428      0.00304     -0.00653 *
 * O        14      0.01290      0.00848      0.00145 *
 * O        15      0.00037     -0.00858     -0.01140 *
 * O        16     -0.01257      0.00380     -0.02192 *
 * O        17     -0.01614     -0.01703     -0.00003 *
 * O        18      0.02022     -0.01220     -0.01019 *
 * O        19      0.02401     -0.02544      0.00277 *
 * O        20      0.01168      0.01650      0.00629 *
 * O        21     -0.00097      0.00518     -0.01108 *
 * O        22      0.00427     -0.00304      0.00653 *
 * O        23     -0.01052     -0.01366     -0.01996 *
 * O        24     -0.00037      0.00858      0.01140 *
 * O        25     -0.00290      0.01678     -0.02020 *
 * O        26     -0.00087      0.00735      0.00955 *
 * O        27     -0.00817     -0.00595     -0.00576 *
 * O        28      0.01109      0.02127     -0.02271 *
 * O        29      0.02801      0.03754      0.00080 *
 * O        30     -0.02401      0.02544     -0.00277 *
 * O        31     -0.00356      0.00561     -0.00219 *
 * O        32      0.01614      0.01703      0.00003 *
 * O        33      0.01124      0.00304      0.00506 *
 * O        34     -0.00339      0.02566      0.02120 *
 * O        35     -0.01290     -0.00848     -0.00145 *
 * O        36      0.01257     -0.00380      0.02192 *
 * O        37     -0.02022      0.01220      0.01019 *
 * O        38     -0.01168     -0.01650     -0.00629 *
 * O        39      0.00097     -0.00518      0.01108 *
 * O        40      0.01052      0.01366      0.01996 *
 * O        41      0.00087     -0.00735     -0.00955 *
 * O        42     -0.01109     -0.02127      0.02271 *
 * O        43     -0.02801     -0.03754     -0.00080 *
 * O        44      0.00356     -0.00561      0.00219 *
 * O        45      0.00951     -0.01364     -0.01623 *
 * O        46      0.00228     -0.00197      0.00323 *
 * O        47     -0.00282      0.00141     -0.01211 *
 * O        48     -0.00894     -0.00128      0.01127 *
 * O        49      0.01151      0.01521      0.00193 *
 * O        50     -0.00573     -0.00575     -0.00836 *
 * O        51     -0.00228      0.00197     -0.00323 *
 * O        52     -0.00951      0.01364      0.01623 *
 * O        53      0.00282     -0.00141      0.01211 *
 * O        54      0.00894      0.00128     -0.01127 *
 * O        55     -0.01151     -0.01521     -0.00193 *
 * O        56      0.00573      0.00575      0.00836 *
 * Zr        1      0.00000     -0.00000      0.00000 *
 * Zr        2      0.01667      0.01210     -0.01418 *
 * Zr        3     -0.00484      0.01351     -0.01068 *
 * Zr        4      0.00402     -0.00389     -0.01099 *
 * Zr        5     -0.01667     -0.01210      0.01418 *
 * Zr        6      0.00484     -0.01351      0.01068 *
 * Zr        7     -0.00403      0.00389      0.01099 *
 * Zr        8      0.00000      0.00000     -0.00000 *
 * Zr        9     -0.01091      0.00649     -0.01475 *
 * Zr       10      0.01091     -0.00650      0.01476 *
 * Zr       11     -0.00426     -0.00210     -0.01543 *
 * Zr       12      0.00426      0.00210      0.01543 *
 * Sn        1      0.00210      0.01211     -0.00986 *
 * Sn        2     -0.00210     -0.01211      0.00986 *
 * Sn        3      0.00000     -0.00000      0.00000 *
 * Sn        4     -0.00000      0.00000      0.00000 *
 * La        1     -0.00000      0.00000     -0.00000 *
 * La        2      0.01599     -0.00043      0.01774 *
 * La        3     -0.00825     -0.00126      0.00745 *
 * La        4     -0.01957      0.00102     -0.01990 *
 * La        5     -0.01599      0.00043     -0.01774 *
 * La        6      0.00824      0.00126     -0.00745 *
 * La        7      0.01957     -0.00102      0.01990 *
 * La        8     -0.00000     -0.00000      0.00000 *
 * La        9     -0.01396      0.00044     -0.01761 *
 * La       10      0.00558      0.00588      0.00176 *
 * La       11      0.01397     -0.00044      0.01761 *
 * La       12     -0.00558     -0.00588     -0.00176 *
 * La       13      0.00000      0.00000      0.00000 *
 * La       14     -0.01612      0.00024     -0.01074 *
 * La       15      0.01612     -0.00024      0.01074 *
 * La       16      0.00000      0.00000     -0.00000 *
 *                                                    *
 ******************************************************
 
 ***************** Stress Tensor *****************
 *                                               *
 *          Cartesian components (GPa)           *
 * --------------------------------------------- *
 *             x             y             z     *
 *                                               *
 *  x      0.022904     -0.000506     -0.031467  *
 *  y     -0.000506      0.024652      0.002524  *
 *  z     -0.031467      0.002524      0.019770  *
 *                                               *
 *  Pressure:   -0.0224                          *
 *                                               *
 *************************************************
 
 Pseudo atomic calculation performed for O 2s2 2p4
 
 Converged in 39 iterations to a total energy of -432.6554 eV
 
 
 Pseudo atomic calculation performed for Zr 4s2 4p6 4d2 5s2
 
 Converged in 38 iterations to a total energy of -1285.4931 eV
 
 
 Pseudo atomic calculation performed for Sn 4d10 5s2 5p2
 
 Converged in 48 iterations to a total energy of -2044.5414 eV
 
 
 Pseudo atomic calculation performed for La 5s2 5p6 5d1 6s2
 
 Converged in 34 iterations to a total energy of -968.0372 eV
 
Charge spilling parameter for spin component 1 = 0.22%
 
     Atomic Populations (Mulliken)
     -----------------------------
Species   Ion     s      p      d      f     Total  Charge (e)
==============================================================
  O        1     1.87   5.00   0.00   0.00   6.87    -0.87
  O        2     1.87   5.00   0.00   0.00   6.87    -0.87
  O        3     1.87   5.00   0.00   0.00   6.87    -0.87
  O        4     1.87   5.00   0.00   0.00   6.87    -0.87
  O        5     1.87   5.00   0.00   0.00   6.87    -0.87
  O        6     1.87   5.00   0.00   0.00   6.87    -0.87
  O        7     1.87   5.00   0.00   0.00   6.87    -0.87
  O        8     1.87   5.00   0.00   0.00   6.87    -0.87
  O        9     1.86   4.94   0.00   0.00   6.80    -0.80
  O       10     1.86   4.94   0.00   0.00   6.80    -0.80
  O       11     1.87   4.98   0.00   0.00   6.85    -0.85
  O       12     1.87   4.98   0.00   0.00   6.85    -0.85
  O       13     1.88   5.02   0.00   0.00   6.91    -0.91
  O       14     1.86   4.94   0.00   0.00   6.80    -0.80
  O       15     1.86   4.94   0.00   0.00   6.80    -0.80
  O       16     1.87   4.99   0.00   0.00   6.85    -0.85
  O       17     1.87   4.98   0.00   0.00   6.85    -0.85
  O       18     1.87   4.99   0.00   0.00   6.85    -0.85
  O       19     1.87   4.98   0.00   0.00   6.85    -0.85
  O       20     1.86   4.94   0.00   0.00   6.80    -0.80
  O       21     1.86   4.94   0.00   0.00   6.80    -0.80
  O       22     1.88   5.02   0.00   0.00   6.91    -0.91
  O       23     1.86   4.94   0.00   0.00   6.80    -0.80
  O       24     1.86   4.94   0.00   0.00   6.80    -0.80
  O       25     1.87   4.98   0.00   0.00   6.85    -0.85
  O       26     1.87   4.98   0.00   0.00   6.85    -0.85
  O       27     1.86   4.94   0.00   0.00   6.80    -0.80
  O       28     1.87   4.99   0.00   0.00   6.85    -0.85
  O       29     1.87   4.99   0.00   0.00   6.85    -0.85
  O       30     1.87   4.98   0.00   0.00   6.85    -0.85
  O       31     1.86   4.94   0.00   0.00   6.80    -0.80
  O       32     1.87   4.98   0.00   0.00   6.85    -0.85
  O       33     1.86   4.94   0.00   0.00   6.80    -0.80
  O       34     1.87   4.98   0.00   0.00   6.85    -0.85
  O       35     1.86   4.94   0.00   0.00   6.80    -0.80
  O       36     1.87   4.99   0.00   0.00   6.85    -0.85
  O       37     1.87   4.99   0.00   0.00   6.85    -0.85
  O       38     1.86   4.94   0.00   0.00   6.80    -0.80
  O       39     1.86   4.94   0.00   0.00   6.80    -0.80
  O       40     1.86   4.94   0.00   0.00   6.80    -0.80
  O       41     1.87   4.98   0.00   0.00   6.85    -0.85
  O       42     1.87   4.99   0.00   0.00   6.85    -0.85
  O       43     1.87   4.99   0.00   0.00   6.85    -0.85
  O       44     1.86   4.94   0.00   0.00   6.80    -0.80
  O       45     1.86   4.94   0.00   0.00   6.80    -0.80
  O       46     1.86   4.94   0.00   0.00   6.80    -0.80
  O       47     1.86   4.94   0.00   0.00   6.80    -0.80
  O       48     1.86   4.94   0.00   0.00   6.80    -0.80
  O       49     1.86   4.94   0.00   0.00   6.80    -0.80
  O       50     1.87   4.98   0.00   0.00   6.85    -0.85
  O       51     1.86   4.94   0.00   0.00   6.80    -0.80
  O       52     1.86   4.94   0.00   0.00   6.80    -0.80
  O       53     1.86   4.94   0.00   0.00   6.80    -0.80
  O       54     1.86   4.94   0.00   0.00   6.80    -0.80
  O       55     1.86   4.94   0.00   0.00   6.80    -0.80
  O       56     1.87   4.98   0.00   0.00   6.85    -0.85
  Zr       1     2.38   6.48   1.93   0.00  10.79     1.21
  Zr       2     2.37   6.49   1.92   0.00  10.78     1.22
  Zr       3     2.38   6.48   1.93   0.00  10.78     1.22
  Zr       4     2.37   6.49   1.92   0.00  10.79     1.21
  Zr       5     2.37   6.49   1.92   0.00  10.78     1.22
  Zr       6     2.38   6.48   1.93   0.00  10.78     1.22
  Zr       7     2.37   6.49   1.92   0.00  10.79     1.21
  Zr       8     2.37   6.47   1.93   0.00  10.77     1.23
  Zr       9     2.37   6.48   1.93   0.00  10.78     1.22
  Zr      10     2.37   6.48   1.93   0.00  10.78     1.22
  Zr      11     2.37   6.47   1.93   0.00  10.77     1.23
  Zr      12     2.37   6.47   1.93   0.00  10.77     1.23
  Sn       1     1.06   1.32  10.00   0.00  12.37     1.63
  Sn       2     1.06   1.32  10.00   0.00  12.37     1.63
  Sn       3     1.05   1.32  10.00   0.00  12.37     1.63
  Sn       4     1.06   1.32  10.00   0.00  12.37     1.63
  La       1     2.03   6.13   1.19   0.00   9.36     1.64
  La       2     2.08   6.16   1.19   0.00   9.43     1.57
  La       3     2.05   6.15   1.19   0.00   9.39     1.61
  La       4     2.06   6.14   1.19   0.00   9.39     1.61
  La       5     2.08   6.16   1.19   0.00   9.43     1.57
  La       6     2.05   6.15   1.19   0.00   9.39     1.61
  La       7     2.06   6.14   1.19   0.00   9.39     1.61
  La       8     2.07   6.17   1.19   0.00   9.43     1.57
  La       9     2.09   6.16   1.19   0.00   9.44     1.56
  La      10     2.04   6.15   1.19   0.00   9.38     1.62
  La      11     2.09   6.16   1.19   0.00   9.44     1.56
  La      12     2.04   6.15   1.19   0.00   9.38     1.62
  La      13     2.01   6.13   1.19   0.00   9.34     1.66
  La      14     2.10   6.18   1.19   0.00   9.47     1.53
  La      15     2.10   6.18   1.19   0.00   9.47     1.53
  La      16     2.05   6.16   1.19   0.00   9.41     1.59
==============================================================
 
            Bond              Population      Length (A)
============================================================
         O 36 -- Sn 4              0.35        2.10033
         O 16 -- Sn 4              0.35        2.10033
         O 28 -- Sn 1              0.35        2.10288
         O 42 -- Sn 2              0.35        2.10288
         O 29 -- Sn 3              0.35        2.10472
         O 43 -- Sn 3              0.35        2.10472
         O 37 -- Sn 1              0.35        2.10496
         O 18 -- Sn 2              0.35        2.10496
         O 34 -- Sn 3              0.35        2.10662
         O 12 -- Sn 3              0.35        2.10662
         O 19 -- Sn 1              0.35        2.10702
         O 30 -- Sn 2              0.35        2.10702
         O 17 -- Sn 4              0.34        2.10704
         O 32 -- Sn 4              0.34        2.10704
         O 50 -- Sn 2              0.34        2.10870
         O 56 -- Sn 1              0.34        2.10870
         O 26 -- Sn 4              0.34        2.10902
         O 41 -- Sn 4              0.34        2.10902
         O 25 -- Sn 2              0.35        2.10911
         O 11 -- Sn 1              0.35        2.10911
         O 13 -- Sn 2              0.33        2.11216
         O 22 -- Sn 1              0.33        2.11216
         O 52 -- Zr 11             0.43        2.11441
         O 45 -- Zr 12             0.43        2.11441
         O 33 -- Zr 3              0.43        2.11442
         O 10 -- Zr 6              0.43        2.11442
         O 36 -- Zr 3              0.46        2.11496
         O 16 -- Zr 6              0.46        2.11496
         O 49 -- Zr 4              0.42        2.11498
         O 55 -- Zr 7              0.42        2.11498
         O 13 -- Sn 3              0.33        2.11509
         O 22 -- Sn 3              0.33        2.11509
         O 55 -- Zr 2              0.42        2.11590
         O 49 -- Zr 5              0.42        2.11590
         O 40 -- Zr 8              0.43        2.11593
         O 23 -- Zr 8              0.43        2.11593
         O 43 -- Zr 2              0.45        2.11618
         O 29 -- Zr 5              0.45        2.11618
         O 47 -- Zr 4              0.43        2.11626
         O 53 -- Zr 7              0.43        2.11626
         O 28 -- Zr 5              0.45        2.11696
         O 42 -- Zr 2              0.45        2.11696
         O 52 -- Zr 1              0.42        2.11719
         O 45 -- Zr 1              0.42        2.11719
         O 33 -- Zr 10             0.43        2.11720
         O 10 -- Zr 9              0.43        2.11720
         O 24 -- Zr 9              0.42        2.11731
         O 15 -- Zr 10             0.42        2.11731
         O 44 -- Zr 3              0.43        2.11757
         O 31 -- Zr 6              0.43        2.11757
         O 15 -- Zr 12             0.42        2.11815
         O 24 -- Zr 11             0.42        2.11815
         O 48 -- Zr 1              0.43        2.11844
         O 54 -- Zr 1              0.43        2.11844
         O 27 -- Zr 12             0.43        2.11851
         O 9  -- Zr 11             0.43        2.11851
         O 17 -- Zr 9              0.46        2.11873
         O 32 -- Zr 10             0.46        2.11873
         O 9  -- Zr 8              0.43        2.11954
         O 27 -- Zr 8              0.43        2.11954
         O 19 -- Zr 12             0.46        2.11988
         O 30 -- Zr 11             0.46        2.11988
         O 18 -- Zr 7              0.45        2.12015
         O 37 -- Zr 4              0.45        2.12015
         O 23 -- Zr 6              0.44        2.12039
         O 40 -- Zr 3              0.44        2.12039
         O 48 -- Zr 10             0.43        2.12062
         O 54 -- Zr 9              0.43        2.12062
         O 20 -- Zr 8              0.43        2.12078
         O 38 -- Zr 8              0.43        2.12078
         O 51 -- Zr 2              0.44        2.12127
         O 46 -- Zr 5              0.44        2.12127
         O 21 -- Zr 10             0.43        2.12173
         O 39 -- Zr 9              0.43        2.12173
         O 47 -- Zr 6              0.42        2.12184
         O 53 -- Zr 3              0.42        2.12184
         O 14 -- Zr 11             0.43        2.12209
         O 35 -- Zr 12             0.43        2.12209
         O 44 -- Zr 11             0.44        2.12239
         O 31 -- Zr 12             0.44        2.12239
         O 34 -- Zr 4              0.45        2.12279
         O 12 -- Zr 7              0.45        2.12279
         O 38 -- Zr 2              0.44        2.12312
         O 20 -- Zr 5              0.44        2.12312
         O 25 -- Zr 9              0.45        2.12318
         O 11 -- Zr 10             0.45        2.12318
         O 26 -- Zr 7              0.46        2.12351
         O 41 -- Zr 4              0.46        2.12351
         O 39 -- Zr 4              0.42        2.12351
         O 21 -- Zr 7              0.42        2.12351
         O 50 -- Zr 1              0.46        2.12378
         O 56 -- Zr 1              0.46        2.12378
         O 14 -- Zr 5              0.43        2.12421
         O 35 -- Zr 2              0.43        2.12421
         O 51 -- Zr 6              0.43        2.12485
         O 46 -- Zr 3              0.43        2.12485
         O 6  -- La 12             0.18        2.36070
         O 1  -- La 10             0.18        2.36070
         O 6  -- La 1              0.19        2.36085
         O 1  -- La 1              0.19        2.36085
         O 8  -- La 13             0.19        2.36139
         O 2  -- La 13             0.19        2.36139
         O 8  -- La 10             0.19        2.36158
         O 2  -- La 12             0.19        2.36158
         O 7  -- La 3              0.19        2.36175
         O 4  -- La 6              0.19        2.36175
         O 7  -- La 16             0.18        2.36190
         O 4  -- La 16             0.18        2.36190
         O 8  -- La 5              0.18        2.36224
         O 2  -- La 2              0.18        2.36224
         O 8  -- La 4              0.18        2.36232
         O 2  -- La 7              0.18        2.36232
         O 5  -- La 6              0.18        2.36252
         O 3  -- La 3              0.18        2.36252
         O 7  -- La 7              0.17        2.36252
         O 4  -- La 4              0.17        2.36252
         O 5  -- La 8              0.18        2.36284
         O 3  -- La 8              0.18        2.36284
         O 5  -- La 2              0.16        2.36319
         O 3  -- La 5              0.16        2.36319
         O 6  -- La 14             0.17        2.36344
         O 1  -- La 15             0.17        2.36344
         O 6  -- La 9              0.17        2.36350
         O 1  -- La 11             0.17        2.36350
         O 7  -- La 11             0.17        2.36369
         O 4  -- La 9              0.17        2.36369
         O 5  -- La 15             0.16        2.36432
         O 3  -- La 14             0.16        2.36432
         O 46 -- La 15             0.13        2.66019
         O 51 -- La 14             0.13        2.66019
         O 53 -- La 9              0.12        2.66102
         O 47 -- La 11             0.12        2.66102
         O 52 -- La 2              0.12        2.66320
         O 45 -- La 5              0.12        2.66320
         O 54 -- La 7              0.12        2.66440
         O 48 -- La 4              0.12        2.66440
         O 49 -- La 12             0.12        2.66606
         O 55 -- La 10             0.12        2.66606
         O 33 -- La 4              0.11        2.66658
         O 10 -- La 7              0.12        2.66658
         O 44 -- La 2              0.13        2.66680
         O 31 -- La 5              0.13        2.66680
         O 24 -- La 10             0.13        2.66976
         O 15 -- La 12             0.13        2.66976
         O 9  -- La 11             0.12        2.67037
         O 27 -- La 9              0.12        2.67037
         O 14 -- La 16             0.13        2.67099
         O 35 -- La 16             0.13        2.67099
         O 21 -- La 8              0.14        2.67183
         O 39 -- La 8              0.14        2.67183
         O 29 -- La 15             0.17        2.67219
         O 43 -- La 14             0.17        2.67219
         O 38 -- La 4              0.12        2.67273
         O 20 -- La 7              0.12        2.67273
         O 40 -- La 9              0.13        2.67274
         O 23 -- La 11             0.13        2.67274
         O 34 -- La 11             0.17        2.67293
         O 12 -- La 9              0.17        2.67293
         O 55 -- La 1              0.13        2.67361
         O 49 -- La 1              0.13        2.67361
         O 33 -- La 13             0.12        2.67370
         O 10 -- La 13             0.12        2.67370
         O 54 -- La 3              0.14        2.67424
         O 48 -- La 6              0.14        2.67424
         O 21 -- La 6              0.13        2.67450
         O 39 -- La 3              0.13        2.67450
         O 23 -- La 7              0.12        2.67453
         O 40 -- La 4              0.12        2.67453
         O 24 -- La 13             0.12        2.67458
         O 15 -- La 13             0.12        2.67458
         O 20 -- La 12             0.13        2.67520
         O 38 -- La 10             0.13        2.67520
         O 13 -- La 15             0.24        2.67615
         O 22 -- La 14             0.24        2.67615
         O 52 -- La 6              0.14        2.67794
         O 45 -- La 3              0.14        2.67794
         O 18 -- La 5              0.17        2.67811
         O 37 -- La 2              0.17        2.67811
         O 11 -- La 14             0.18        2.67847
         O 25 -- La 15             0.18        2.67847
         O 17 -- La 15             0.18        2.67924
         O 32 -- La 14             0.18        2.67924
         O 53 -- La 1              0.14        2.67988
         O 47 -- La 1              0.14        2.67988
         O 27 -- La 12             0.13        2.68016
         O 9  -- La 10             0.13        2.68016
         O 44 -- La 13             0.12        2.68043
         O 31 -- La 13             0.12        2.68043
         O 56 -- La 2              0.18        2.68055
         O 50 -- La 5              0.18        2.68055
         O 26 -- La 5              0.18        2.68065
         O 41 -- La 2              0.18        2.68065
         O 42 -- La 16             0.18        2.68110
         O 28 -- La 16             0.18        2.68110
         O 13 -- La 11             0.24        2.68125
         O 22 -- La 9              0.24        2.68125
         O 28 -- La 7              0.16        2.68217
         O 42 -- La 4              0.16        2.68217
         O 14 -- La 6              0.14        2.68257
         O 35 -- La 3              0.14        2.68257
         O 30 -- La 11             0.18        2.68274
         O 19 -- La 9              0.18        2.68274
         O 36 -- La 15             0.17        2.68516
         O 16 -- La 14             0.17        2.68516
         O 18 -- La 8              0.19        2.68570
         O 37 -- La 8              0.19        2.68570
         O 56 -- La 7              0.18        2.68649
         O 50 -- La 4              0.18        2.68649
         O 26 -- La 10             0.18        2.68722
         O 41 -- La 12             0.18        2.68722
         O 46 -- La 1              0.13        2.68759
         O 51 -- La 1              0.13        2.68759
         O 12 -- La 6              0.19        2.68800
         O 34 -- La 3              0.19        2.68800
         O 36 -- La 2              0.17        2.68810
         O 16 -- La 5              0.17        2.68810
         O 30 -- La 16             0.17        2.68810
         O 19 -- La 16             0.17        2.68810
         O 29 -- La 6              0.18        2.69250
         O 43 -- La 3              0.18        2.69250
         O 32 -- La 12             0.18        2.69294
         O 17 -- La 10             0.18        2.69294
         O 11 -- La 8              0.19        2.69305
         O 25 -- La 8              0.19        2.69305
         O 37 -- O 56             -0.06        2.79809
         O 18 -- O 50             -0.06        2.79809
         O 22 -- O 43             -0.06        2.79815
         O 13 -- O 29             -0.06        2.79815
         O 13 -- O 34             -0.06        2.79859
         O 12 -- O 22             -0.06        2.79859
         O 36 -- O 41             -0.06        2.80005
         O 16 -- O 26             -0.06        2.80005
         O 28 -- O 56             -0.06        2.80043
         O 42 -- O 50             -0.06        2.80043
         O 17 -- O 36             -0.06        2.80084
         O 16 -- O 32             -0.06        2.80084
         O 13 -- O 25             -0.06        2.80114
         O 11 -- O 22             -0.06        2.80114
         O 13 -- O 30             -0.06        2.80383
         O 19 -- O 22             -0.06        2.80383
         O 30 -- O 42             -0.06        2.80389
         O 19 -- O 28             -0.06        2.80389
         O 12 -- O 29             -0.06        2.80626
         O 34 -- O 43             -0.06        2.80626
         O 10 -- O 54             -0.04        2.80904
         O 33 -- O 48             -0.04        2.80904
         O 31 -- O 45             -0.04        2.80921
         O 44 -- O 52             -0.04        2.80921
         O 40 -- O 53             -0.04        2.81051
         O 23 -- O 47             -0.04        2.81051
         O 32 -- O 41             -0.06        2.81191
         O 17 -- O 26             -0.06        2.81191
         O 38 -- O 55             -0.03        2.81229
         O 20 -- O 49             -0.03        2.81229
         O 10 -- O 23             -0.03        2.81248
         O 33 -- O 40             -0.03        2.81248
         O 11 -- O 37             -0.06        2.81355
         O 18 -- O 25             -0.06        2.81355
         O 10 -- O 24             -0.03        2.81386
         O 15 -- O 33             -0.03        2.81386
         O 38 -- O 40             -0.03        2.81400
         O 20 -- O 23             -0.03        2.81400
         O 9  -- O 23             -0.03        2.81455
         O 27 -- O 40             -0.03        2.81455
         O 29 -- O 46             -0.03        2.81459
         O 43 -- O 51             -0.03        2.81459
         O 15 -- O 27             -0.03        2.81478
         O 9  -- O 24             -0.03        2.81478
         O 34 -- O 47             -0.03        2.81484
         O 12 -- O 53             -0.03        2.81484
         O 36 -- O 46             -0.03        2.81776
         O 16 -- O 51             -0.03        2.81776
         O 33 -- O 44             -0.03        2.81814
         O 10 -- O 31             -0.03        2.81814
         O 47 -- O 49             -0.03        2.81819
         O 53 -- O 55             -0.03        2.81819
         O 35 -- O 42             -0.03        2.81831
         O 14 -- O 28             -0.03        2.81831
         O 20 -- O 28             -0.03        2.81857
         O 38 -- O 42             -0.03        2.81857
         O 52 -- O 56             -0.03        2.81883
         O 45 -- O 50             -0.03        2.81883
         O 41 -- O 49             -0.03        2.81931
         O 26 -- O 55             -0.03        2.81931
         O 54 -- O 56             -0.03        2.81958
         O 48 -- O 50             -0.03        2.81958
         O 48 -- O 52             -0.03        2.81984
         O 45 -- O 54             -0.03        2.81984
         O 9  -- O 30             -0.03        2.81994
         O 19 -- O 27             -0.03        2.81994
         O 36 -- O 44             -0.03        2.82052
         O 16 -- O 31             -0.03        2.82052
         O 15 -- O 31             -0.03        2.82138
         O 24 -- O 44             -0.03        2.82138
         O 37 -- O 39             -0.03        2.82190
         O 18 -- O 21             -0.03        2.82190
         O 17 -- O 24             -0.03        2.82219
         O 15 -- O 32             -0.03        2.82219
         O 21 -- O 48             -0.03        2.82237
         O 39 -- O 54             -0.03        2.82237
         O 37 -- O 41             -0.03        2.82327
         O 18 -- O 26             -0.03        2.82327
         O 11 -- O 32             -0.03        2.82469
         O 17 -- O 25             -0.03        2.82469
         O 20 -- O 27             -0.03        2.82475
         O 9  -- O 38             -0.03        2.82475
         O 35 -- O 45             -0.03        2.82550
         O 14 -- O 52             -0.03        2.82550
         O 51 -- O 55             -0.03        2.82604
         O 46 -- O 49             -0.03        2.82604
         O 46 -- O 53             -0.03        2.82746
         O 47 -- O 51             -0.03        2.82746
         O 14 -- O 30             -0.03        2.82782
         O 19 -- O 35             -0.03        2.82782
         O 12 -- O 21             -0.03        2.82990
         O 34 -- O 39             -0.03        2.82990
         O 11 -- O 21             -0.03        2.83142
         O 25 -- O 39             -0.03        2.83142
         O 14 -- O 29             -0.03        2.83356
         O 35 -- O 43             -0.03        2.83356
============================================================
 

Writing analysis data to 08.castep_bin

Writing model to 08.check
 
 A BibTeX formatted list of references used in this run has been written to 
 08.bib
 
Initialisation time =     53.97 s
Calculation time    =  33106.28 s
Finalisation time   =     54.18 s
Total time          =  33214.43 s
Peak Memory Use     = 2839216 kB
  
Overall parallel efficiency rating: Good (78%)                                  
  
Data was distributed by:-
G-vector (4-way); efficiency rating: Good (79%)                                 
k-point (14-way); efficiency rating: Excellent (99%)                            
