 +-------------------------------------------------+
 |                                                 |
 |      CCC   AA    SSS  TTTTT  EEEEE  PPPP        |
 |     C     A  A  S       T    E      P   P       |
 |     C     AAAA   SS     T    EEE    PPPP        |
 |     C     A  A     S    T    E      P           |
 |      CCC  A  A  SSS     T    EEEEE  P           |
 |                                                 |
 +-------------------------------------------------+
 |                                                 |
 | Welcome to Academic Release CASTEP version 16.11|          
 | Ab Initio Total Energy Program                  |
 |                                                 |
 | Authors:                                        |
 | M. Segall, M. Probert, C. Pickard, P. Hasnip,   |
 | S. Clark, K. Refson, J. R. Yates, M. Payne      |
 |                                                 |
 | Contributors:                                   |
 | P. Lindan, P. Haynes, J. White, V. Milman,      |
 | N. Govind, M. Gibson, P. Tulip, V. Cocula,      |
 | B. Montanari, D. Quigley, M. Glover,            |
 | L. Bernasconi, A. Perlov, M. Plummer,           |
 | E. McNellis, J. Meyer, J. Gale, D. Jochym       |
 | J. Aarons, B. Walker, R. Gillen, D. Jones       |
 | T. Green, I. J. Bush, C. J. Armstrong,          |
 | E. J. Higgins, E. L. Brown, M. S. McFly         |
 |                                                 |
 | Copyright (c) 2000 - 2015                       |
 |                                                 |
 |     Distributed under the terms of an           |
 |     Agreement between the United Kingdom        |
 |     Car-Parrinello (UKCP) Consortium,           |
 |     Daresbury Laboratory and Accelrys, Inc.     |
 |                                                 |
 | Please cite                                     |
 |                                                 |
 |     "First principles methods using CASTEP"     |
 |                                                 |
 |         Zeitschrift fuer Kristallographie       |
 |           220(5-6) pp. 567-570 (2005)           |
 |                                                 |
 | S. J. Clark, M. D. Segall, C. J. Pickard,       |
 | P. J. Hasnip, M. J. Probert, K. Refson,         |
 | M. C. Payne                                     |
 |                                                 |
 |       in all publications arising from          |
 |              your use of CASTEP                 |
 |                                                 |
 +-------------------------------------------------+
 
 
 Compiled for linux_x86_64_ifort16 on Sat, 23 Jul 2016 23:44:54 +0100
 from code version 
 203e84763863+ Castep161_branch Fri, 04 Mar 2016 19:21:07 +0000
 Compiler: Intel Fortran 16.0.3.210; Optimisation: fast
 MATHLIBS: Intel MKL(11.3.3) (LAPACK version 3.6.0)
 FFT Lib : mkl
 Fundamental constants values: CODATA 2010
 
 Run started: Mon, 25 Dec 2017 18:11:14 +0000
 +-------------------------------------------------+
 |                                                 |
 |           N   N    M   M    RRRR                |
 |           NN  N    MM MM    R   R               |
 |           N N N    M M M    RRRR                |
 |           N  NN    M   M    R  R                |
 |           N   N    M   M    R   R               |
 |                                                 |
 +-------------------------------------------------+
 |                                                 |
 | Welcome to Materials Studio CASTEP-NMR          |
 |                                                 |
 | Authors:                                        |
 | J.R. Yates, C.J. Pickard, F. Mauri              |
 |                                                 |
 | Contributors:                                   |
 | T.F.G. Green, S.A. Joyce                        |
 |                                                 |
 | Copyright (c) 2004 - 2015                       |
 |                                                 |
 | Please cite the appropriate publications in all |
 | work arising from your use of CASTEP NMR.       |
 |                                                 |
 | For NMR Shielding Tensors cite:                 |
 |    "All-electron magnetic response with         |
 |    pseudopotentials: NMR chemical shifts",      |
 |    C. J. Pickard, F. Mauri;                     |
 |    Physical Review B63 245101 (2001), and       |
 |                                                 |
 |    "Calculation of NMR Chemical Shifts          |
 |    for extended systems using                   |
 |    Ultrasoft Pseudopotentials",                 |
 |    J. R. Yates, C. J. Pickard and F. Mauri      |
 |    Physical Review B76 024401 (2007)            |
 |                                                 |
 | For Electric Field Gradients cite:              |
 |   "Accurate First Principles Prediction of 17O  |
 |    NMR Parameters in SiO2: Assignment of the    |
 |    Zeolite Ferrierite Spectrum"                 |
 |    M. Profeta, F. Mauri and C. J. Pickard       |
 |    J. Amer. Chem. Soc. 125 541 (2003)           |
 |                                                 |
 | For Spin-Spin (J) Couplings cite:               |
 |   "A first principles theory of NMR J-coupling  |
 |   in solid-state systems"                       |
 |   S.A. Joyce, J.R. Yates, C.J. Pickard, F. Mauri|
 |   J. Chem. Phys. 127 204107 (2007)              |
 |                                                 |
 |   "Relativistic NMR J-coupling with ultrasoft   |
 |   pseudopotentials and the zeroth-order regular |
 |   approximation"                                |
 |   T.F.G. Green and J.R. Yates                   |
 |   J. Chem. Phys. 140 234106 (2014)              |
 |                                                 |
 +-------------------------------------------------+
 
 
 Atomic calculation performed for O: 1s2 2s2 2p4
 
 Converged in 44 iterations to an ae energy of -2040.855 eV
 
 
 Atomic calculation performed for O: 1s2 2s2 2p4
 
 Exceeded max iterations: converged to 0.000000062 eV
 
   ============================================================                
   | Pseudopotential Report - Date of generation 25-12-2017   |                
   ------------------------------------------------------------                
   | Element: O Ionic charge:  6.00 Level of theory: PBE      |                
   | Atomic Solver: ZORA (scalar)                             |                
   |                                                          |                
   |               Reference Electronic Structure             |                
   |         Orbital         Occupation         Energy        |                
   |            2s              2.000           -0.881        |                
   |            2p              4.000           -0.332        |                
   |                                                          |                
   |                 Pseudopotential Definition               |                
   |        Beta     l      e      Rc     scheme   norm       |                
   |          1      0   -0.881   1.100     qc      0         |                
   |          2      0    0.250   1.100     qc      0         |                
   |          3      1   -0.332   1.100     qc      0         |                
   |          4      1    0.250   1.100     qc      0         |                
   |         loc     2    0.000   1.100     pn      0         |                
   |                                                          |                
   | Augmentation charge Rinner = 0.769                       |                
   | Partial core correction Rc = 0.769                       |                
   ------------------------------------------------------------                
   | "2|1.1|15|18|20|20:21(qc=7)"                             |                
   ------------------------------------------------------------                
   |      Author: Chris J. Pickard, Cambridge University      |                
   ============================================================                
 
 Atomic calculation performed for Zr: 1s2 2s2 2p6 3s2 3p6 3d10 4s2 4p6 4d2 5s2
 
 Converged in 53 iterations to an ae energy of -97719.888 eV
 
 
 Atomic calculation performed for Zr: 1s2 2s2 2p6 3s2 3p6 3d10 4s2 4p6 4d2 5s2
 
 Exceeded max iterations: converged to 0.000000970 eV
 
 Warning: ion_atom_descreen_psp: negative charge density encountered
   ============================================================                
   | Pseudopotential Report - Date of generation 25-12-2017   |                
   ------------------------------------------------------------                
   | Element: Zr Ionic charge: 12.00 Level of theory: PBE     |                
   | Atomic Solver: ZORA (scalar)                             |                
   |                                                          |                
   |               Reference Electronic Structure             |                
   |         Orbital         Occupation         Energy        |                
   |            4s              2.000           -2.003        |                
   |            4p              6.000           -1.193        |                
   |            5s              2.000           -0.163        |                
   |            4d              2.000           -0.132        |                
   |                                                          |                
   |                 Pseudopotential Definition               |                
   |        Beta     l      e      Rc     scheme   norm       |                
   |          1      0   -2.003   2.105     qc      0         |                
   |          2      0   -0.163   2.105     qc      0         |                
   |          3      0    0.250   2.105     qc      0         |                
   |          4      1   -1.193   2.105     qc      0         |                
   |          5      1    0.250   2.105     qc      0         |                
   |          6      2   -0.132   2.105     qc      0         |                
   |          7      2    0.250   2.105     qc      0         |                
   |         loc     3    0.000   2.105     pn      0         |                
   |                                                          |                
   | Augmentation charge Rinner = 1.471                       |                
   | Partial core correction Rc = 1.471                       |                
   ------------------------------------------------------------                
   | "3|2.1|7|8|9|40U:50:41:42"                               |                
   ------------------------------------------------------------                
   |      Author: Chris J. Pickard, Cambridge University      |                
   ============================================================                
 
 Atomic calculation performed for Sn:
 1s2 2s2 2p6 3s2 3p6 3d10 4s2 4p6 4d10 5s2 5p2
 
 Converged in 58 iterations to an ae energy of -167539.320 eV
 
 
 Atomic calculation performed for Sn:
 1s2 2s2 2p6 3s2 3p6 3d10 4s2 4p6 4d10 5s2 5p2
 
 Exceeded max iterations: converged to 0.000001154 eV
 
   ============================================================                
   | Pseudopotential Report - Date of generation 25-12-2017   |                
   ------------------------------------------------------------                
   | Element: Sn Ionic charge: 14.00 Level of theory: PBE     |                
   | Atomic Solver: ZORA (scalar)                             |                
   |                                                          |                
   |               Reference Electronic Structure             |                
   |         Orbital         Occupation         Energy        |                
   |            4d             10.000           -0.950        |                
   |            5s              2.000           -0.388        |                
   |            5p              2.000           -0.136        |                
   |                                                          |                
   |                 Pseudopotential Definition               |                
   |        Beta     l      e      Rc     scheme   norm       |                
   |          1      0   -0.388   2.199     qc      0         |                
   |          2      0    0.250   2.199     qc      0         |                
   |          3      1   -0.136   2.199     qc      0         |                
   |          4      1    0.250   2.199     qc      0         |                
   |          5      2   -0.950   2.199     qc      0         |                
   |          6      2    0.250   2.199     qc      0         |                
   |         loc     3    0.000   2.199     pn      0         |                
   |                                                          |                
   | Augmentation charge Rinner = 1.537                       |                
   | Partial core correction Rc = 1.537                       |                
   ------------------------------------------------------------                
   | "3|2.2|7|8|9|50:51:42"                                   |                
   ------------------------------------------------------------                
   |      Author: Chris J. Pickard, Cambridge University      |                
   ============================================================                
 
 Atomic calculation performed for La:
 1s2 2s2 2p6 3s2 3p6 3d10 4s2 4p6 4d10 5s2 5p6 5d1 6s2
 
 Converged in 56 iterations to an ae energy of -230121.495 eV
 
 
 Atomic calculation performed for La:
 1s2 2s2 2p6 3s2 3p6 3d10 4s2 4p6 4d10 5s2 5p6 5d1 6s2
 
 Exceeded max iterations: converged to 0.000000907 eV
 
 Warning: ion_atom_descreen_psp: negative charge density encountered
   ============================================================                
   | Pseudopotential Report - Date of generation 25-12-2017   |                
   ------------------------------------------------------------                
   | Element: La Ionic charge: 11.00 Level of theory: PBE     |                
   | Atomic Solver: ZORA (scalar)                             |                
   |                                                          |                
   |               Reference Electronic Structure             |                
   |         Orbital         Occupation         Energy        |                
   |            5s              2.000           -1.430        |                
   |            5p              6.000           -0.823        |                
   |            6s              2.000           -0.135        |                
   |            5d              1.000           -0.114        |                
   |                                                          |                
   |                 Pseudopotential Definition               |                
   |        Beta     l      e      Rc     scheme   norm       |                
   |          1      0   -1.430   2.298     qc      0         |                
   |          2      0   -0.135   2.298     qc      0         |                
   |          3      0    0.250   2.298     qc      0         |                
   |          4      1   -0.823   2.298     qc      0         |                
   |          5      1    0.250   2.298     qc      0         |                
   |          6      2   -0.114   2.298     qc      0         |                
   |          7      2    0.250   2.298     qc      0         |                
   |         loc     2    0.000   2.298     pn      0         |                
   |                                                          |                
   | Augmentation charge Rinner = 1.606                       |                
   | Partial core correction Rc = 1.606                       |                
   ------------------------------------------------------------                
   | "2|2.3|5|6|7|50U:60:51:52(qc=4.5)"                       |                
   ------------------------------------------------------------                
   |      Author: Chris J. Pickard, Cambridge University      |                
   ============================================================                
 
 Pseudo atomic calculation performed for O 2s2 2p4
 
 Converged in 39 iterations to a total energy of -432.6554 eV
 
 
 Pseudo atomic calculation performed for Zr 4s2 4p6 4d2 5s2
 
 Converged in 38 iterations to a total energy of -1285.4931 eV
 
 
 Pseudo atomic calculation performed for Sn 4d10 5s2 5p2
 
 Converged in 48 iterations to a total energy of -2044.5414 eV
 
 
 Pseudo atomic calculation performed for La 5s2 5p6 5d1 6s2
 
 Converged in 34 iterations to a total energy of -968.0372 eV
 
 Calculation parallelised over 56 processes.
 Data is distributed by G-vector(4-way) and k-point(14-way)

 ************************************ Title ************************************
 nmr testing

 ***************************** General Parameters ******************************
  
 output verbosity                               : normal  (1)
 write checkpoint data to                       : 11.check
 type of calculation                            : Magnetic Resonance
 stress calculation                             : on
 density difference calculation                 : off
 electron localisation func (ELF) calculation   : off
 Hirshfeld analysis                             : off
 unlimited duration calculation
 timing information                             : on
 memory usage estimate                          : on
 write final potential to formatted file        : off
 write final density to formatted file          : off
 write structure in CIF formatted file          : on
 write structure in CELL formatted file         : on
 write BibTeX reference list                    : on
 write OTFG pseudopotential files               : on
 checkpoint writing                             : both castep_bin and check files
  
 output         length unit                     : A
 output           mass unit                     : amu
 output           time unit                     : ps
 output         charge unit                     : e
 output           spin unit                     : hbar/2
 output         energy unit                     : eV
 output          force unit                     : eV/A
 output       velocity unit                     : A/ps
 output       pressure unit                     : GPa
 output     inv_length unit                     : 1/A
 output      frequency unit                     : cm-1
 output force constant unit                     : eV/A**2
 output         volume unit                     : A**3
 output   IR intensity unit                     : (D/A)**2/amu
 output         dipole unit                     : D
 output         efield unit                     : eV/A/e
 output        entropy unit                     : J/mol/K
  
 wavefunctions paging                           : none
 random number generator seed                   : randomised (181116801)
 data distribution                              : optimal for this architecture
 optimization strategy                          : maximize speed(+++)

 *********************** Exchange-Correlation Parameters ***********************
  
 using functional                               : Perdew Burke Ernzerhof
 relativistic treatment                         : ZORA
 DFT+D: Semi-empirical dispersion correction    : off

 ************************* Pseudopotential Parameters **************************
  
 pseudopotential representation                 : reciprocal space
 <beta|phi> representation                      : reciprocal space
 spin-orbit coupling                            : off

 **************************** Basis Set Parameters *****************************
  
 plane wave basis set cut-off                   :   816.3416   eV
 size of standard grid                          :     1.7500
 size of   fine   gmax                          :    25.6161   1/A
 finite basis set correction                    : automatic
 number of sample energies                      :          3
           sample  spacing                      :     5.0000   eV

 **************************** Electronic Parameters ****************************
  
 number of  electrons                           :  712.0    
 net charge of system                           :  0.000    
 treating system as non-spin-polarized
 number of bands                                :        427

 ********************* Electronic Minimization Parameters **********************
  
 Method: Treating system as metallic with density mixing treatment of electrons,
         and number of  SD  steps               :          1
         and number of  CG  steps               :          4
  
 total energy / atom convergence tol.           : 0.1000E-08   eV
 eigen-energy convergence tolerance             : 0.2472E-09   eV
 max force / atom convergence tol.              : ignored
 convergence tolerance window                   :          3   cycles
 max. number of SCF cycles                      :         50
 number of fixed-spin iterations                :         10
 smearing scheme                                : Gaussian
 smearing width                                 : 0.2000       eV
 Fermi energy convergence tolerance             : 0.2721E-13   eV
 periodic dipole correction                     : NONE

 ************************** Density Mixing Parameters **************************
  
 density-mixing scheme                          : Broyden
 max. length of mixing history                  :         20
 charge density mixing amplitude                : 0.8000    
 cut-off energy for mixing                      :  816.3       eV

 *********************** Population Analysis Parameters ************************
  
 Population analysis with cutoff                :  3.000       A

 ************************ Magnetic Resonance Parameters ************************
  
 Magnetic Resonance Property                    : Chemical Shielding + EFG
 Position Operator Method                       : crystal
 max. number of MagRes CG steps                 :        250
 convergence tolerance window                   :          2   cycles
 energy convergence tolerance                   : 0.1000E-11   eV
 band convergence tolerance                     : 0.1000E-08   eV

 *******************************************************************************
  
 
                           -------------------------------
                                      Unit Cell
                           -------------------------------
        Real Lattice(A)                      Reciprocal Lattice(1/A)
  10.9124596   0.0047785   0.0047786        0.5757811  -0.0002521  -0.0002521
   0.0047789  10.9109701   0.0017393       -0.0002521   0.5758596  -0.0000917
   0.0047789   0.0017393  10.9109702       -0.0002521  -0.0000917   0.5758596
 
                       Lattice parameters(A)       Cell Angles
                    a =   10.912462          alpha =   89.981722
                    b =   10.910971          beta  =   89.949811
                    c =   10.910971          gamma =   89.949811
 
                       Current cell volume = 1299.119817       A**3
 
                           -------------------------------
                                     Cell Contents
                           -------------------------------
                         Total number of ions in cell =   88
                      Total number of species in cell =    4
                        Max number of any one species =   56
 
            xxxxxxxxxxxxxxxxxxxxxxxxxxxxxxxxxxxxxxxxxxxxxxxxxxxxxxxxxxxx
            x  Element    Atom        Fractional coordinates of atoms  x
            x            Number           u          v          w      x
            x----------------------------------------------------------x
            x  O            1         0.124983   0.124939   0.124939   x 
            x  O            2         0.624965   0.125158   0.624944   x 
            x  O            3         0.125186   0.624944   0.624944   x 
            x  O            4         0.624965   0.624944   0.125158   x 
            x  O            5         0.875164   0.375008   0.375008   x 
            x  O            6         0.875130   0.875096   0.875096   x 
            x  O            7         0.374919   0.375022   0.875112   x 
            x  O            8         0.374919   0.875112   0.375022   x 
            x  O            9         0.420503   0.125439   0.125439   x 
            x  O           10         0.329732   0.124041   0.624110   x 
            x  O           11         0.830607   0.624928   0.624928   x 
            x  O           12         0.920248   0.624965   0.125033   x 
            x  O           13         0.125381   0.419755   0.124562   x 
            x  O           14         0.624049   0.328920   0.125075   x 
            x  O           15         0.624914   0.830445   0.624862   x 
            x  O           16         0.124957   0.920081   0.625068   x 
            x  O           17         0.125381   0.124562   0.419755   x 
            x  O           18         0.124352   0.624599   0.330039   x 
            x  O           19         0.624914   0.624862   0.830445   x 
            x  O           20         0.625136   0.124839   0.919796   x 
            x  O           21         0.874259   0.671009   0.376285   x 
            x  O           22         0.874057   0.579181   0.873975   x 
            x  O           23         0.374676   0.080270   0.875516   x 
            x  O           24         0.375544   0.171033   0.374267   x 
            x  O           25         0.169719   0.374933   0.374933   x 
            x  O           26         0.080260   0.875082   0.374913   x 
            x  O           27         0.579354   0.874003   0.874003   x 
            x  O           28         0.670907   0.376569   0.874874   x 
            x  O           29         0.874636   0.375150   0.080271   x 
            x  O           30         0.375544   0.374267   0.171033   x 
            x  O           31         0.376373   0.874403   0.671027   x 
            x  O           32         0.874057   0.873975   0.579181   x 
            x  O           33         0.670907   0.874874   0.376569   x 
            x  O           34         0.080260   0.374913   0.875082   x 
            x  O           35         0.376373   0.671027   0.874403   x 
            x  O           36         0.874636   0.080271   0.375150   x 
            x  O           37         0.874259   0.376285   0.671009   x 
            x  O           38         0.374676   0.875516   0.080270   x 
            x  O           39         0.124352   0.330039   0.624599   x 
            x  O           40         0.625136   0.919796   0.124839   x 
            x  O           41         0.920248   0.125033   0.624965   x 
            x  O           42         0.329732   0.624110   0.124041   x 
            x  O           43         0.124957   0.625068   0.920081   x 
            x  O           44         0.624049   0.125075   0.328920   x 
            x  O           45         0.419818   0.625367   0.625367   x 
            x  O           46         0.830733   0.124931   0.124931   x 
            x  O           47         0.125100   0.125075   0.830308   x 
            x  O           48         0.625563   0.625009   0.420084   x 
            x  O           49         0.875062   0.169688   0.875103   x 
            x  O           50         0.374905   0.580310   0.375161   x 
            x  O           51         0.169783   0.875048   0.875048   x 
            x  O           52         0.579291   0.374436   0.374436   x 
            x  O           53         0.875062   0.875103   0.169688   x 
            x  O           54         0.374905   0.375161   0.580310   x 
            x  O           55         0.125100   0.830308   0.125075   x 
            x  O           56         0.625563   0.420084   0.625009   x 
            x  Zr           1         0.500058   0.500152   0.500152   x 
            x  Zr           2         0.250535   0.750642   0.999671   x 
            x  Zr           3         0.750187   0.999989   0.250115   x 
            x  Zr           4         0.999750   0.250665   0.750639   x 
            x  Zr           5         0.750187   0.250115   0.999989   x 
            x  Zr           6         0.250535   0.999671   0.750642   x 
            x  Zr           7         0.999750   0.750639   0.250665   x 
            x  Zr           8         0.499938   0.999957   0.999957   x 
            x  Zr           9         0.250069   0.250088   0.499496   x 
            x  Zr          10         0.250069   0.499496   0.250088   x 
            x  Zr          11         0.999737   0.499757   0.999681   x 
            x  Zr          12         0.999737   0.999681   0.499757   x 
            x  Sn           1         0.748971   0.501189   0.748922   x 
            x  Sn           2         0.748971   0.748922   0.501189   x 
            x  Sn           3         0.499847   0.249788   0.249788   x 
            x  Sn           4         0.501169   0.748908   0.748908   x 
            x  La           1         0.999927   0.000087   0.000087   x 
            x  La           2         0.750291   0.249830   0.500004   x 
            x  La           3         0.249861   0.499723   0.749845   x 
            x  La           4         0.499801   0.750000   0.249903   x 
            x  La           5         0.249861   0.749845   0.499723   x 
            x  La           6         0.750291   0.500004   0.249830   x 
            x  La           7         0.499801   0.249903   0.750000   x 
            x  La           8         0.000547   0.499803   0.499803   x 
            x  La           9         0.750277   0.750419   0.000702   x 
            x  La          10         0.249628   0.999649   0.249846   x 
            x  La          11         0.249628   0.249846   0.999649   x 
            x  La          12         0.750277   0.000702   0.750419   x 
            x  La          13         0.499734   0.000222   0.500110   x 
            x  La          14         0.000678   0.750284   0.750284   x 
            x  La          15         0.999899   0.249855   0.249855   x 
            x  La          16         0.499734   0.500110   0.000222   x 
            xxxxxxxxxxxxxxxxxxxxxxxxxxxxxxxxxxxxxxxxxxxxxxxxxxxxxxxxxxxx
 
 
                         No user defined ionic velocities
 
                           -------------------------------
                                   Details of Species
                           -------------------------------
 
                               Mass of species in AMU
                                    O   15.9994000
                                    Zr   91.2240000
                                    Sn  118.7100000
                                    La  138.9055000
 
                          Electric Quadrupole Moment (Barn)
                                    O   -0.0255800 Isotope 17
                                    Zr   -0.1760000 Isotope 91
                                    Sn    1.0000000 No Isotope Defined
                                    La    0.2000000 Isotope139
 
                          Files used for pseudopotentials:
                                    O 2|1.1|15|18|20|20:21(qc=7)
                                    Zr 3|2.1|7|8|9|40U:50:41:42
                                    Sn 3|2.2|7|8|9|50:51:42
                                    La 2|2.3|5|6|7|50U:60:51:52(qc=4.5)
 
                           -------------------------------
                              k-Points For BZ Sampling
                           -------------------------------
                       MP grid size for SCF calculation is  3  3  3
                            with an offset of   0.000  0.000  0.000
                       Number of kpoints used =            14
 
                           -------------------------------
                               Symmetry and Constraints
                           -------------------------------
 
                      Maximum deviation from symmetry =  0.00000         ANG
 
         There are no symmetry operations specified or generated for this cell
                      Number of ionic constraints     =           3
                      Point group of crystal =     1: C1, 1, 1
                      Space group of crystal =     8: Cm, C -2y
 
 
                         Centre of mass is constrained
             Set iprint > 1 for details of linear ionic constraints
 
                         Number of cell constraints= 0
                         Cell constraints are:  1 2 3 4 5 6
 
                         External pressure/stress (GPa)
                          0.00000   0.00000   0.00000
                                    0.00000   0.00000
                                              0.00000
  
+---------------- MEMORY AND SCRATCH DISK ESTIMATES PER PROCESS --------------+
|                                                     Memory          Disk    |
| Baseline code, static data and system overhead      322.0 MB         0.0 MB |
| BLAS internal memory storage                          0.0 MB         0.0 MB |
| Model and support data                             1320.0 MB         0.0 MB |
| Electronic energy minimisation requirements         378.8 MB         0.0 MB |
| Force calculation requirements                       24.1 MB         0.0 MB |
| Stress calculation requirements                      28.3 MB         0.0 MB |
|                                               ----------------------------- |
| Approx. total storage required per process         2020.8 MB         0.0 MB |
|                                                                             |
| Requirements will fluctuate during execution and may exceed these estimates |
+-----------------------------------------------------------------------------+
Calculating finite basis set correction with  3 cut-off energies.
Calculating total energy with cut-off of  806.342eV.
------------------------------------------------------------------------ <-- SCF
SCF loop      Energy           Fermi           Energy gain       Timer   <-- SCF
                               energy          per atom          (sec)   <-- SCF
------------------------------------------------------------------------ <-- SCF
Initial  -5.24533103E+004  0.00000000E+000                        76.03  <-- SCF
      1  -6.15129543E+004  7.76015482E+000   1.02950500E+002     218.76  <-- SCF
      2  -6.40985524E+004  7.53405102E+000   2.93817960E+001     317.05  <-- SCF
      3  -6.41740081E+004  7.11030859E+000   8.57451669E-001     422.14  <-- SCF
      4  -6.41722561E+004  7.83748850E+000  -1.99091519E-002     553.75  <-- SCF
      5  -6.40590403E+004  7.56110222E+000  -1.28654351E+000     683.33  <-- SCF
      6  -6.40608972E+004  7.47002903E+000   2.11009970E-002     841.16  <-- SCF
      7  -6.40606933E+004  7.54341894E+000  -2.31629614E-003     976.98  <-- SCF
      8  -6.40607320E+004  7.54336995E+000   4.39809258E-004    1135.48  <-- SCF
      9  -6.40607493E+004  7.54161936E+000   1.96415488E-004    1286.32  <-- SCF
     10  -6.40607518E+004  7.53670861E+000   2.81319754E-005    1435.22  <-- SCF
     11  -6.40607508E+004  7.53854592E+000  -1.14284639E-005    1576.99  <-- SCF
     12  -6.40607511E+004  7.53812443E+000   3.45494485E-006    1733.14  <-- SCF
     13  -6.40607511E+004  7.53730540E+000   2.45190672E-007    1875.85  <-- SCF
     14  -6.40607511E+004  7.53676345E+000  -8.03487547E-008    2011.11  <-- SCF
     15  -6.40607511E+004  7.53646564E+000  -6.49802894E-008    2139.88  <-- SCF
     16  -6.40607511E+004  7.53628681E+000   8.23285030E-009    2265.56  <-- SCF
     17  -6.40607511E+004  7.53618460E+000   2.84707454E-009    2383.83  <-- SCF
     18  -6.40607511E+004  7.53614033E+000  -4.19038975E-010    2484.79  <-- SCF
     19  -6.40607511E+004  7.53609428E+000   7.26990436E-011    2581.34  <-- SCF
------------------------------------------------------------------------ <-- SCF
 
Final energy, E             =  -64060.75111700     eV
Final free energy (E-TS)    =  -64060.75111700     eV
(energies not corrected for finite basis set)
 
NB est. 0K energy (E-0.5TS)      =  -64060.75111700     eV
 
Calculating total energy with cut-off of  811.342eV.
------------------------------------------------------------------------ <-- SCF
SCF loop      Energy           Fermi           Energy gain       Timer   <-- SCF
                               energy          per atom          (sec)   <-- SCF
------------------------------------------------------------------------ <-- SCF
Initial  -6.40607511E+004  0.00000000E+000                      2617.06  <-- SCF
      1  -6.40607536E+004  7.53608747E+000   2.77019691E-005    2730.05  <-- SCF
      2  -6.40607536E+004  7.53608747E+000   1.92926669E-010    2823.33  <-- SCF
      3  -6.40607536E+004  7.53608842E+000   1.62907729E-008    2915.00  <-- SCF
      4  -6.40607536E+004  7.53609131E+000   5.35891789E-010    3005.01  <-- SCF
      5  -6.40607536E+004  7.53609195E+000  -7.32615120E-011    3094.68  <-- SCF
------------------------------------------------------------------------ <-- SCF
 
Final energy, E             =  -64060.75355626     eV
Final free energy (E-TS)    =  -64060.75355626     eV
(energies not corrected for finite basis set)
 
NB est. 0K energy (E-0.5TS)      =  -64060.75355626     eV
 
Calculating total energy with cut-off of  816.342eV.
------------------------------------------------------------------------ <-- SCF
SCF loop      Energy           Fermi           Energy gain       Timer   <-- SCF
                               energy          per atom          (sec)   <-- SCF
------------------------------------------------------------------------ <-- SCF
Initial  -6.40607536E+004  0.00000000E+000                      3130.50  <-- SCF
      1  -6.40607564E+004  7.53609517E+000   3.28475277E-005    3247.18  <-- SCF
      2  -6.40607564E+004  7.53609517E+000   2.01504312E-010    3336.57  <-- SCF
      3  -6.40607564E+004  7.53608881E+000   2.03773872E-008    3426.05  <-- SCF
      4  -6.40607564E+004  7.53609265E+000   6.53025838E-010    3514.55  <-- SCF
      5  -6.40607564E+004  7.53608894E+000  -3.51542764E-012    3602.92  <-- SCF
------------------------------------------------------------------------ <-- SCF
 
Final energy, E             =  -64060.75644871     eV
Final free energy (E-TS)    =  -64060.75644871     eV
(energies not corrected for finite basis set)
 
NB est. 0K energy (E-0.5TS)      =  -64060.75644871     eV
 
 For future reference: finite basis dEtot/dlog(Ecut) =      -0.436312eV
 Total energy corrected for finite basis set =  -64060.756429 eV
 
  =====================================================================
  +       Calculation of Nuclear Magnetic Resonance Parameters        +
  + ================================================================= +
 
  Starting Calculation of Electric Field Gradient Tensors         |<-- EFG
  +---------------- MEMORY AND SCRATCH DISK ESTIMATES PER PROCESS --------------+
  |                                                     Memory          Disk    |
  | Model and support data                             1317.8 MB         0.0 MB |
  | NMR EFG calculation requirements                    364.4 MB         0.0 MB |
  |                                               ----------------------------- |
  | Approx. total storage required per process         1682.2 MB         0.0 MB |
  |                                                                             |
  | Requirements will fluctuate during execution and may exceed these estimates |
  +-----------------------------------------------------------------------------+
  Total Time for EFG Tensors                     396.39 sec       |<-- EFG
 
  Starting Calculation of Chemical Shielding Tensors              |<-- NMR
  +---------------- MEMORY AND SCRATCH DISK ESTIMATES PER PROCESS --------------+
  |                                                     Memory          Disk    |
  | Model and support data                             1317.8 MB         0.0 MB |
  | NMR chemical shift calculation requirements         559.8 MB         0.0 MB |
  |                                               ----------------------------- |
  | Approx. total storage required per process         1877.5 MB         0.0 MB |
  |                                                                             |
  | Requirements will fluctuate during execution and may exceed these estimates |
  +-----------------------------------------------------------------------------+
  Starting k-point:   1 of   1                                    |<-- NMR
  Total Time for step 1 of 6:                   3215.82 sec       |<-- NMR
  Total Time for step 2 of 6:                   3225.22 sec       |<-- NMR
  Total Time for step 3 of 6:                   3216.77 sec       |<-- NMR
  Total Time for step 4 of 6:                   3232.50 sec       |<-- NMR
  Total Time for step 5 of 6:                   3238.16 sec       |<-- NMR
  Total Time for step 6 of 6:                   3227.70 sec       |<-- NMR
  Total Time for Chemical Shielding Tensors    28494.08 sec       |<-- NMR
 
  ========================================================================
  |           Chemical Shielding and Electric Field Gradient Tensors     |
  |----------------------------------------------------------------------|
  |     Nucleus                Shielding tensor             EFG Tensor   |
  |  Species       Ion    Iso(ppm)   Aniso(ppm)  Asym    Cq(MHz)    Eta  |
  |    O           1     -316.35      -8.84      0.35  -3.011E-02   0.41 |
  |    O           2     -315.57       9.23      0.22   3.388E-02   0.78 |
  |    O           3     -315.89      -8.63      0.05   3.268E-02   0.98 |
  |    O           4     -315.57       9.23      0.22   3.388E-02   0.78 |
  |    O           5     -316.79     -10.84      0.99   2.892E-02   0.40 |
  |    O           6     -318.81      -8.19      0.23   4.664E-02   0.04 |
  |    O           7     -316.82      11.36      0.50  -5.254E-02   0.89 |
  |    O           8     -316.82      11.36      0.50  -5.254E-02   0.89 |
  |    O           9      -87.59      85.27      0.15  -3.207E+00   0.13 |
  |    O          10     -161.44     148.79      0.79   1.103E+00   0.78 |
  |    O          11      -11.31      60.61      0.27   3.943E+00   0.78 |
  |    O          12     -161.57     147.16      0.80   1.096E+00   0.79 |
  |    O          13     -165.58     153.44      0.78   1.040E+00   0.91 |
  |    O          14      -85.22      93.07      0.27  -3.172E+00   0.11 |
  |    O          15      -11.69      60.25      0.21   3.958E+00   0.78 |
  |    O          16     -162.50     148.01      0.80   1.076E+00   0.80 |
  |    O          17     -165.58     153.43      0.78   1.040E+00   0.91 |
  |    O          18     -164.31     152.06      0.77   1.076E+00   0.87 |
  |    O          19      -11.69      60.25      0.21   3.958E+00   0.78 |
  |    O          20     -161.46     150.88      0.84   1.085E+00   0.81 |
  |    O          21      -88.47      80.53      0.14  -3.184E+00   0.12 |
  |    O          22      -87.79      80.87      0.02  -3.181E+00   0.10 |
  |    O          23     -164.68     157.97      0.81   1.078E+00   0.89 |
  |    O          24      -86.87      90.53      0.17  -3.203E+00   0.13 |
  |    O          25     -166.58     161.49      0.81   1.069E+00   0.98 |
  |    O          26     -166.83     160.87      0.81   1.077E+00   0.96 |
  |    O          27      -88.03      77.68      0.03  -3.201E+00   0.09 |
  |    O          28      -86.90      84.81      0.12  -3.125E+00   0.10 |
  |    O          29     -164.62     155.64      0.83   1.070E+00   0.91 |
  |    O          30      -86.87      90.53      0.17  -3.203E+00   0.13 |
  |    O          31      -87.44      80.61      0.19  -3.171E+00   0.12 |
  |    O          32      -87.79      80.86      0.02  -3.181E+00   0.10 |
  |    O          33      -86.90      84.80      0.12  -3.125E+00   0.10 |
  |    O          34     -166.83     160.88      0.81   1.077E+00   0.96 |
  |    O          35      -87.44      80.61      0.19  -3.171E+00   0.12 |
  |    O          36     -164.62     155.64      0.83   1.070E+00   0.91 |
  |    O          37      -88.47      80.54      0.14  -3.184E+00   0.12 |
  |    O          38     -164.68     157.97      0.81   1.078E+00   0.89 |
  |    O          39     -164.31     152.06      0.77   1.076E+00   0.87 |
  |    O          40     -161.46     150.89      0.84   1.085E+00   0.81 |
  |    O          41     -161.57     147.17      0.80   1.096E+00   0.79 |
  |    O          42     -161.44     148.79      0.79   1.103E+00   0.78 |
  |    O          43     -162.50     148.01      0.80   1.076E+00   0.80 |
  |    O          44      -85.22      93.07      0.27  -3.172E+00   0.11 |
  |    O          45      -91.33      84.73      0.11  -3.249E+00   0.12 |
  |    O          46     -167.23     157.22      0.80  -1.025E+00   0.97 |
  |    O          47     -167.35     154.01      0.76  -1.027E+00   0.98 |
  |    O          48      -90.06      91.38      0.20  -3.188E+00   0.11 |
  |    O          49     -166.41     159.14      0.80   1.064E+00   0.96 |
  |    O          50     -165.07     151.92      0.81   1.064E+00   0.82 |
  |    O          51     -166.74     161.33      0.81   1.079E+00   0.95 |
  |    O          52      -87.99      90.94      0.33  -3.124E+00   0.08 |
  |    O          53     -166.41     159.14      0.80   1.064E+00   0.96 |
  |    O          54     -165.07     151.92      0.81   1.064E+00   0.82 |
  |    O          55     -167.35     154.00      0.76  -1.027E+00   0.98 |
  |    O          56      -90.06      91.38      0.20  -3.188E+00   0.11 |
  |    Zr          1     1612.78    -120.69      0.06  -3.753E+01   0.04 |
  |    Zr          2     1628.58    -126.35      0.07  -4.016E+01   0.06 |
  |    Zr          3     1632.23    -128.46      0.07  -3.924E+01   0.06 |
  |    Zr          4     1628.33    -125.93      0.12  -4.040E+01   0.08 |
  |    Zr          5     1632.23    -128.47      0.07  -3.924E+01   0.06 |
  |    Zr          6     1628.58    -126.34      0.07  -4.016E+01   0.06 |
  |    Zr          7     1628.33    -125.93      0.12  -4.040E+01   0.08 |
  |    Zr          8     1633.73    -130.48      0.12  -3.910E+01   0.11 |
  |    Zr          9     1629.05    -124.19      0.05  -4.031E+01   0.04 |
  |    Zr         10     1629.05    -124.19      0.05  -4.031E+01   0.04 |
  |    Zr         11     1630.25    -125.82      0.14  -3.990E+01   0.10 |
  |    Zr         12     1630.25    -125.82      0.14  -3.990E+01   0.10 |
  |    Sn          1     3249.50     -48.67      0.57   1.268E+02   0.05 |
  |    Sn          2     3249.50     -48.67      0.57   1.268E+02   0.05 |
  |    Sn          3     3246.77     -37.65      0.20   1.308E+02   0.08 |
  |    Sn          4     3250.13     -48.88      0.47   1.275E+02   0.02 |
  |    La          1     4797.49     966.66      0.00  -8.431E+01   0.01 |
  |    La          2     4709.73     767.46      0.04  -8.261E+01   0.05 |
  |    La          3     4754.27     866.53      0.05  -8.447E+01   0.08 |
  |    La          4     4758.48     861.76      0.04  -8.573E+01   0.06 |
  |    La          5     4754.27     866.53      0.05  -8.447E+01   0.08 |
  |    La          6     4709.73     767.46      0.04  -8.261E+01   0.05 |
  |    La          7     4758.48     861.76      0.04  -8.573E+01   0.06 |
  |    La          8     4703.78     758.86      0.04  -7.991E+01   0.11 |
  |    La          9     4708.37     751.10      0.05  -8.131E+01   0.10 |
  |    La         10     4753.07     878.27      0.05  -8.321E+01   0.06 |
  |    La         11     4753.07     878.27      0.05  -8.321E+01   0.06 |
  |    La         12     4708.37     751.11      0.05  -8.131E+01   0.10 |
  |    La         13     4657.89     668.36      0.10  -7.811E+01   0.15 |
  |    La         14     4710.35     754.25      0.05  -8.169E+01   0.11 |
  |    La         15     4801.07     963.91      0.01  -8.613E+01   0.02 |
  |    La         16     4657.89     668.36      0.10  -7.811E+01   0.15 |
  ========================================================================
 
 *********************** Forces ***********************
 *                                                    *
 *            Cartesian components (eV/A)             *
 * -------------------------------------------------- *
 *                   x            y            z      *
 *                                                    *
 * O         1     -0.00640     -0.00779     -0.00779 *
 * O         2     -0.00392     -0.00345     -0.00177 *
 * O         3      0.00135     -0.00900     -0.00900 *
 * O         4     -0.00392     -0.00177     -0.00345 *
 * O         5      0.00429     -0.00320     -0.00320 *
 * O         6      0.00393      0.01011      0.01011 *
 * O         7     -0.00795     -0.00506     -0.00192 *
 * O         8     -0.00795     -0.00192     -0.00506 *
 * O         9     -0.00721      0.01169      0.01169 *
 * O        10     -0.00408      0.00213      0.00387 *
 * O        11     -0.00281     -0.00299     -0.00299 *
 * O        12      0.00704      0.01082      0.01284 *
 * O        13      0.00478     -0.00501      0.00338 *
 * O        14     -0.01659     -0.00524      0.00982 *
 * O        15     -0.00345     -0.00673      0.00201 *
 * O        16      0.01338      0.00266      0.00361 *
 * O        17      0.00478      0.00338     -0.00501 *
 * O        18     -0.00140      0.00302     -0.00737 *
 * O        19     -0.00345      0.00201     -0.00673 *
 * O        20      0.00064      0.00380      0.00537 *
 * O        21     -0.01702     -0.00537      0.01688 *
 * O        22     -0.02495      0.00581     -0.02472 *
 * O        23     -0.00190     -0.00759      0.00882 *
 * O        24      0.00833     -0.00097     -0.02256 *
 * O        25      0.01435     -0.00532     -0.00532 *
 * O        26     -0.00868     -0.00042     -0.00819 *
 * O        27      0.00387     -0.02278     -0.02278 *
 * O        28     -0.00981      0.01324     -0.01975 *
 * O        29     -0.00089     -0.01603     -0.01000 *
 * O        30      0.00833     -0.02256     -0.00098 *
 * O        31      0.01870     -0.02687     -0.00461 *
 * O        32     -0.02495     -0.02472      0.00581 *
 * O        33     -0.00981     -0.01975      0.01324 *
 * O        34     -0.00868     -0.00819     -0.00042 *
 * O        35      0.01870     -0.00461     -0.02688 *
 * O        36     -0.00089     -0.01000     -0.01603 *
 * O        37     -0.01702      0.01688     -0.00537 *
 * O        38     -0.00190      0.00882     -0.00759 *
 * O        39     -0.00140     -0.00737      0.00302 *
 * O        40      0.00064      0.00537      0.00380 *
 * O        41      0.00704      0.01284      0.01082 *
 * O        42     -0.00408      0.00387      0.00213 *
 * O        43      0.01338      0.00361      0.00266 *
 * O        44     -0.01659      0.00982     -0.00524 *
 * O        45      0.00963      0.01149      0.01149 *
 * O        46     -0.01223     -0.00321     -0.00321 *
 * O        47     -0.00329      0.00353     -0.00627 *
 * O        48      0.01128      0.00958      0.00667 *
 * O        49      0.00639      0.01211      0.01106 *
 * O        50      0.00473     -0.00479      0.00813 *
 * O        51      0.01496      0.01108      0.01108 *
 * O        52     -0.00118     -0.01042     -0.01042 *
 * O        53      0.00639      0.01106      0.01211 *
 * O        54      0.00473      0.00813     -0.00479 *
 * O        55     -0.00329     -0.00627      0.00353 *
 * O        56      0.01128      0.00667      0.00958 *
 * Zr        1      0.00952     -0.01069     -0.01069 *
 * Zr        2     -0.00029     -0.01118     -0.00814 *
 * Zr        3     -0.00772     -0.00379      0.00832 *
 * Zr        4     -0.00963      0.00557     -0.00514 *
 * Zr        5     -0.00772      0.00832     -0.00379 *
 * Zr        6     -0.00029     -0.00814     -0.01118 *
 * Zr        7     -0.00963     -0.00514      0.00557 *
 * Zr        8      0.03180     -0.00132     -0.00132 *
 * Zr        9     -0.00085     -0.00449      0.00733 *
 * Zr       10     -0.00085      0.00733     -0.00449 *
 * Zr       11     -0.00910      0.04442      0.00418 *
 * Zr       12     -0.00910      0.00418      0.04442 *
 * Sn        1      0.01089     -0.00868      0.01577 *
 * Sn        2      0.01089      0.01577     -0.00869 *
 * Sn        3      0.00621      0.00297      0.00297 *
 * Sn        4     -0.00816      0.01138      0.01139 *
 * La        1      0.00268     -0.00484     -0.00484 *
 * La        2     -0.00263      0.00171      0.00223 *
 * La        3      0.00223      0.01795      0.00939 *
 * La        4      0.01460      0.00034      0.00842 *
 * La        5      0.00223      0.00939      0.01794 *
 * La        6     -0.00263      0.00223      0.00171 *
 * La        7      0.01460      0.00842      0.00034 *
 * La        8     -0.01446      0.00451      0.00451 *
 * La        9     -0.00122     -0.01827     -0.01772 *
 * La       10      0.00979      0.01615      0.00297 *
 * La       11      0.00979      0.00297      0.01615 *
 * La       12     -0.00122     -0.01772     -0.01827 *
 * La       13      0.00321     -0.00145     -0.00471 *
 * La       14     -0.01383     -0.00844     -0.00844 *
 * La       15      0.00246      0.00114      0.00114 *
 * La       16      0.00321     -0.00471     -0.00145 *
 *                                                    *
 ******************************************************
 
 ***************** Stress Tensor *****************
 *                                               *
 *          Cartesian components (GPa)           *
 * --------------------------------------------- *
 *             x             y             z     *
 *                                               *
 *  x      0.034619      0.028252      0.028253  *
 *  y      0.028252      0.014363      0.001475  *
 *  z      0.028253      0.001475      0.014365  *
 *                                               *
 *  Pressure:   -0.0211                          *
 *                                               *
 *************************************************
 
 Pseudo atomic calculation performed for O 2s2 2p4
 
 Converged in 39 iterations to a total energy of -432.6554 eV
 
 
 Pseudo atomic calculation performed for Zr 4s2 4p6 4d2 5s2
 
 Converged in 38 iterations to a total energy of -1285.4931 eV
 
 
 Pseudo atomic calculation performed for Sn 4d10 5s2 5p2
 
 Converged in 48 iterations to a total energy of -2044.5414 eV
 
 
 Pseudo atomic calculation performed for La 5s2 5p6 5d1 6s2
 
 Converged in 34 iterations to a total energy of -968.0372 eV
 
Charge spilling parameter for spin component 1 = 0.22%
 
     Atomic Populations (Mulliken)
     -----------------------------
Species   Ion     s      p      d      f     Total  Charge (e)
==============================================================
  O        1     1.87   5.00   0.00   0.00   6.87    -0.87
  O        2     1.87   5.00   0.00   0.00   6.87    -0.87
  O        3     1.87   5.00   0.00   0.00   6.87    -0.87
  O        4     1.87   5.00   0.00   0.00   6.87    -0.87
  O        5     1.87   5.00   0.00   0.00   6.87    -0.87
  O        6     1.87   5.00   0.00   0.00   6.87    -0.87
  O        7     1.87   5.00   0.00   0.00   6.87    -0.87
  O        8     1.87   5.00   0.00   0.00   6.87    -0.87
  O        9     1.87   4.98   0.00   0.00   6.85    -0.85
  O       10     1.86   4.94   0.00   0.00   6.80    -0.80
  O       11     1.88   5.02   0.00   0.00   6.91    -0.91
  O       12     1.86   4.94   0.00   0.00   6.80    -0.80
  O       13     1.86   4.94   0.00   0.00   6.80    -0.80
  O       14     1.87   4.98   0.00   0.00   6.85    -0.85
  O       15     1.88   5.02   0.00   0.00   6.91    -0.91
  O       16     1.86   4.94   0.00   0.00   6.80    -0.80
  O       17     1.86   4.94   0.00   0.00   6.80    -0.80
  O       18     1.86   4.94   0.00   0.00   6.80    -0.80
  O       19     1.88   5.02   0.00   0.00   6.91    -0.91
  O       20     1.86   4.94   0.00   0.00   6.80    -0.80
  O       21     1.87   4.98   0.00   0.00   6.85    -0.85
  O       22     1.87   4.98   0.00   0.00   6.85    -0.85
  O       23     1.86   4.94   0.00   0.00   6.80    -0.80
  O       24     1.87   4.98   0.00   0.00   6.85    -0.85
  O       25     1.85   4.94   0.00   0.00   6.80    -0.80
  O       26     1.85   4.94   0.00   0.00   6.80    -0.80
  O       27     1.87   4.98   0.00   0.00   6.85    -0.85
  O       28     1.87   4.98   0.00   0.00   6.85    -0.85
  O       29     1.86   4.94   0.00   0.00   6.80    -0.80
  O       30     1.87   4.98   0.00   0.00   6.85    -0.85
  O       31     1.87   4.98   0.00   0.00   6.85    -0.85
  O       32     1.87   4.98   0.00   0.00   6.85    -0.85
  O       33     1.87   4.98   0.00   0.00   6.85    -0.85
  O       34     1.85   4.94   0.00   0.00   6.80    -0.80
  O       35     1.87   4.98   0.00   0.00   6.85    -0.85
  O       36     1.86   4.94   0.00   0.00   6.80    -0.80
  O       37     1.87   4.98   0.00   0.00   6.85    -0.85
  O       38     1.86   4.94   0.00   0.00   6.80    -0.80
  O       39     1.86   4.94   0.00   0.00   6.80    -0.80
  O       40     1.86   4.94   0.00   0.00   6.80    -0.80
  O       41     1.86   4.94   0.00   0.00   6.80    -0.80
  O       42     1.86   4.94   0.00   0.00   6.80    -0.80
  O       43     1.86   4.94   0.00   0.00   6.80    -0.80
  O       44     1.87   4.98   0.00   0.00   6.85    -0.85
  O       45     1.87   4.99   0.00   0.00   6.85    -0.85
  O       46     1.86   4.94   0.00   0.00   6.80    -0.80
  O       47     1.86   4.94   0.00   0.00   6.80    -0.80
  O       48     1.87   4.99   0.00   0.00   6.85    -0.85
  O       49     1.85   4.94   0.00   0.00   6.80    -0.80
  O       50     1.86   4.94   0.00   0.00   6.80    -0.80
  O       51     1.85   4.94   0.00   0.00   6.80    -0.80
  O       52     1.87   4.98   0.00   0.00   6.85    -0.85
  O       53     1.85   4.94   0.00   0.00   6.80    -0.80
  O       54     1.86   4.94   0.00   0.00   6.80    -0.80
  O       55     1.86   4.94   0.00   0.00   6.80    -0.80
  O       56     1.87   4.99   0.00   0.00   6.85    -0.85
  Zr       1     2.38   6.51   1.92   0.00  10.80     1.20
  Zr       2     2.37   6.47   1.93   0.00  10.77     1.23
  Zr       3     2.38   6.48   1.93   0.00  10.79     1.21
  Zr       4     2.38   6.48   1.93   0.00  10.78     1.22
  Zr       5     2.38   6.48   1.93   0.00  10.79     1.21
  Zr       6     2.37   6.47   1.93   0.00  10.77     1.23
  Zr       7     2.38   6.48   1.93   0.00  10.78     1.22
  Zr       8     2.37   6.48   1.93   0.00  10.78     1.22
  Zr       9     2.37   6.47   1.93   0.00  10.77     1.23
  Zr      10     2.37   6.47   1.93   0.00  10.77     1.23
  Zr      11     2.37   6.47   1.93   0.00  10.77     1.23
  Zr      12     2.37   6.47   1.93   0.00  10.77     1.23
  Sn       1     1.05   1.32  10.00   0.00  12.37     1.63
  Sn       2     1.05   1.32  10.00   0.00  12.37     1.63
  Sn       3     1.06   1.32  10.00   0.00  12.37     1.63
  Sn       4     1.05   1.32  10.00   0.00  12.37     1.63
  La       1     2.04   6.12   1.19   0.00   9.36     1.64
  La       2     2.07   6.17   1.19   0.00   9.43     1.57
  La       3     2.05   6.15   1.19   0.00   9.39     1.61
  La       4     2.05   6.15   1.19   0.00   9.40     1.60
  La       5     2.05   6.15   1.19   0.00   9.39     1.61
  La       6     2.07   6.17   1.19   0.00   9.43     1.57
  La       7     2.05   6.15   1.19   0.00   9.40     1.60
  La       8     2.09   6.16   1.19   0.00   9.44     1.56
  La       9     2.08   6.17   1.19   0.00   9.44     1.56
  La      10     2.04   6.14   1.19   0.00   9.38     1.62
  La      11     2.04   6.14   1.19   0.00   9.38     1.62
  La      12     2.08   6.17   1.19   0.00   9.44     1.56
  La      13     2.10   6.18   1.19   0.00   9.47     1.53
  La      14     2.06   6.17   1.19   0.00   9.42     1.58
  La      15     2.01   6.13   1.19   0.00   9.34     1.66
  La      16     2.10   6.18   1.19   0.00   9.47     1.53
==============================================================
 
            Bond              Population      Length (A)
============================================================
         O 30 -- Sn 3              0.35        2.10264
         O 24 -- Sn 3              0.35        2.10264
         O 45 -- Sn 4              0.35        2.10413
         O 48 -- Sn 2              0.35        2.10491
         O 56 -- Sn 1              0.35        2.10491
         O 44 -- Sn 3              0.35        2.10526
         O 14 -- Sn 3              0.35        2.10526
         O 9  -- Sn 3              0.35        2.10632
         O 15 -- Sn 2              0.34        2.10718
         O 19 -- Sn 1              0.34        2.10718
         O 37 -- Sn 1              0.34        2.10824
         O 21 -- Sn 2              0.34        2.10824
         O 19 -- Sn 4              0.34        2.10831
         O 15 -- Sn 4              0.34        2.10831
         O 11 -- Sn 2              0.34        2.10845
         O 11 -- Sn 1              0.34        2.10845
         O 31 -- Sn 4              0.34        2.10940
         O 35 -- Sn 4              0.34        2.10940
         O 32 -- Sn 2              0.35        2.11071
         O 22 -- Sn 1              0.35        2.11071
         O 52 -- Sn 3              0.34        2.11099
         O 34 -- Zr 4              0.43        2.11156
         O 26 -- Zr 7              0.43        2.11156
         O 27 -- Sn 4              0.35        2.11168
         O 33 -- Sn 2              0.34        2.11232
         O 28 -- Sn 1              0.34        2.11232
         O 51 -- Zr 6              0.42        2.11349
         O 51 -- Zr 2              0.42        2.11349
         O 25 -- Zr 10             0.42        2.11431
         O 25 -- Zr 9              0.42        2.11431
         O 23 -- Zr 6              0.43        2.11447
         O 38 -- Zr 2              0.43        2.11447
         O 26 -- Zr 12             0.42        2.11491
         O 34 -- Zr 11             0.42        2.11491
         O 49 -- Zr 4              0.43        2.11526
         O 53 -- Zr 7              0.43        2.11526
         O 29 -- Zr 5              0.42        2.11634
         O 36 -- Zr 3              0.42        2.11634
         O 53 -- Zr 3              0.43        2.11641
         O 49 -- Zr 5              0.43        2.11641
         O 38 -- Zr 8              0.42        2.11668
         O 23 -- Zr 8              0.42        2.11668
         O 24 -- Zr 9              0.46        2.11689
         O 30 -- Zr 10             0.46        2.11689
         O 29 -- Zr 11             0.42        2.11795
         O 36 -- Zr 12             0.42        2.11795
         O 12 -- Zr 11             0.43        2.11812
         O 41 -- Zr 12             0.43        2.11812
         O 39 -- Zr 4              0.43        2.11851
         O 18 -- Zr 7              0.43        2.11851
         O 20 -- Zr 8              0.43        2.11862
         O 40 -- Zr 8              0.43        2.11862
         O 17 -- Zr 9              0.43        2.11903
         O 13 -- Zr 10             0.43        2.11903
         O 54 -- Zr 1              0.43        2.11907
         O 50 -- Zr 1              0.43        2.11907
         O 43 -- Zr 11             0.43        2.11929
         O 16 -- Zr 12             0.43        2.11929
         O 14 -- Zr 5              0.45        2.11946
         O 44 -- Zr 3              0.45        2.11946
         O 10 -- Zr 6              0.43        2.11970
         O 42 -- Zr 2              0.43        2.11970
         O 42 -- Zr 10             0.43        2.12005
         O 10 -- Zr 9              0.43        2.12005
         O 56 -- Zr 1              0.44        2.12020
         O 48 -- Zr 1              0.44        2.12020
         O 46 -- Zr 3              0.43        2.12024
         O 46 -- Zr 5              0.43        2.12024
         O 47 -- Zr 6              0.44        2.12056
         O 55 -- Zr 2              0.44        2.12056
         O 45 -- Zr 1              0.45        2.12056
         O 9  -- Zr 8              0.46        2.12072
         O 17 -- Zr 12             0.44        2.12105
         O 13 -- Zr 11             0.44        2.12105
         O 18 -- Zr 10             0.44        2.12170
         O 39 -- Zr 9              0.44        2.12170
         O 54 -- Zr 9              0.43        2.12173
         O 50 -- Zr 10             0.43        2.12173
         O 20 -- Zr 5              0.42        2.12185
         O 40 -- Zr 3              0.42        2.12185
         O 47 -- Zr 4              0.44        2.12191
         O 55 -- Zr 7              0.44        2.12191
         O 35 -- Zr 2              0.46        2.12222
         O 31 -- Zr 6              0.46        2.12222
         O 21 -- Zr 7              0.46        2.12294
         O 37 -- Zr 4              0.46        2.12294
         O 52 -- Zr 1              0.46        2.12313
         O 22 -- Zr 11             0.46        2.12453
         O 32 -- Zr 12             0.46        2.12453
         O 28 -- Zr 5              0.45        2.12473
         O 33 -- Zr 3              0.45        2.12473
         O 43 -- Zr 2              0.43        2.12496
         O 16 -- Zr 6              0.43        2.12496
         O 41 -- Zr 4              0.43        2.12539
         O 12 -- Zr 7              0.43        2.12539
         O 27 -- Zr 8              0.46        2.12729
         O 1  -- La 15             0.20        2.36075
         O 3  -- La 5              0.18        2.36087
         O 3  -- La 3              0.18        2.36087
         O 2  -- La 7              0.18        2.36106
         O 4  -- La 4              0.18        2.36106
         O 1  -- La 11             0.19        2.36116
         O 1  -- La 10             0.19        2.36116
         O 5  -- La 15             0.17        2.36153
         O 2  -- La 2              0.17        2.36177
         O 4  -- La 6              0.17        2.36177
         O 8  -- La 4              0.19        2.36198
         O 7  -- La 7              0.19        2.36198
         O 7  -- La 11             0.16        2.36219
         O 8  -- La 10             0.16        2.36219
         O 8  -- La 5              0.18        2.36232
         O 7  -- La 3              0.18        2.36232
         O 6  -- La 14             0.18        2.36237
         O 5  -- La 2              0.18        2.36245
         O 5  -- La 6              0.18        2.36245
         O 3  -- La 14             0.18        2.36247
         O 1  -- La 1              0.19        2.36253
         O 6  -- La 1              0.17        2.36263
         O 6  -- La 9              0.18        2.36302
         O 6  -- La 12             0.18        2.36302
         O 3  -- La 8              0.17        2.36354
         O 4  -- La 9              0.17        2.36369
         O 2  -- La 12             0.17        2.36369
         O 5  -- La 8              0.17        2.36386
         O 4  -- La 16             0.16        2.36404
         O 2  -- La 13             0.16        2.36404
         O 7  -- La 16             0.17        2.36411
         O 8  -- La 13             0.17        2.36411
         O 42 -- La 16             0.13        2.66263
         O 10 -- La 13             0.13        2.66263
         O 18 -- La 8              0.13        2.66599
         O 39 -- La 8              0.13        2.66599
         O 40 -- La 9              0.12        2.66621
         O 20 -- La 12             0.12        2.66621
         O 46 -- La 1              0.11        2.66689
         O 25 -- La 8              0.12        2.66700
         O 36 -- La 2              0.14        2.66714
         O 29 -- La 6              0.14        2.66714
         O 23 -- La 11             0.11        2.66717
         O 38 -- La 10             0.11        2.66717
         O 53 -- La 9              0.14        2.66718
         O 49 -- La 12             0.14        2.66718
         O 51 -- La 14             0.13        2.66862
         O 55 -- La 10             0.12        2.66891
         O 47 -- La 11             0.12        2.66891
         O 26 -- La 10             0.11        2.66911
         O 34 -- La 11             0.11        2.66911
         O 50 -- La 5              0.12        2.66922
         O 54 -- La 3              0.12        2.66922
         O 13 -- La 11             0.12        2.66959
         O 17 -- La 10             0.12        2.66959
         O 46 -- La 15             0.13        2.67087
         O 16 -- La 14             0.13        2.67164
         O 43 -- La 14             0.13        2.67164
         O 53 -- La 1              0.11        2.67169
         O 49 -- La 1              0.11        2.67169
         O 34 -- La 3              0.13        2.67317
         O 26 -- La 5              0.13        2.67317
         O 15 -- La 13             0.23        2.67348
         O 19 -- La 16             0.23        2.67348
         O 51 -- La 1              0.11        2.67404
         O 12 -- La 6              0.14        2.67425
         O 41 -- La 2              0.14        2.67425
         O 50 -- La 4              0.14        2.67449
         O 54 -- La 7              0.14        2.67449
         O 12 -- La 9              0.13        2.67451
         O 41 -- La 12             0.13        2.67451
         O 47 -- La 1              0.12        2.67477
         O 55 -- La 1              0.12        2.67477
         O 56 -- La 2              0.17        2.67538
         O 48 -- La 6              0.17        2.67538
         O 11 -- La 8              0.23        2.67565
         O 36 -- La 15             0.11        2.67594
         O 29 -- La 15             0.11        2.67594
         O 45 -- La 3              0.18        2.67631
         O 45 -- La 5              0.18        2.67631
         O 40 -- La 4              0.14        2.67666
         O 20 -- La 7              0.14        2.67666
         O 23 -- La 7              0.14        2.67677
         O 38 -- La 4              0.14        2.67677
         O 33 -- La 13             0.18        2.67748
         O 28 -- La 16             0.18        2.67748
         O 25 -- La 15             0.12        2.67753
         O 35 -- La 16             0.18        2.67800
         O 31 -- La 13             0.18        2.67800
         O 16 -- La 5              0.13        2.67810
         O 43 -- La 3              0.13        2.67810
         O 13 -- La 15             0.12        2.67954
         O 17 -- La 15             0.12        2.67954
         O 18 -- La 5              0.13        2.67962
         O 39 -- La 3              0.13        2.67962
         O 14 -- La 16             0.18        2.67995
         O 44 -- La 13             0.18        2.67995
         O 56 -- La 7              0.18        2.68154
         O 48 -- La 4              0.18        2.68154
         O 24 -- La 13             0.18        2.68190
         O 30 -- La 16             0.18        2.68190
         O 11 -- La 14             0.23        2.68254
         O 9  -- La 10             0.17        2.68367
         O 9  -- La 11             0.17        2.68367
         O 21 -- La 8              0.18        2.68368
         O 37 -- La 8              0.18        2.68368
         O 52 -- La 6              0.19        2.68449
         O 52 -- La 2              0.19        2.68449
         O 27 -- La 12             0.19        2.68461
         O 27 -- La 9              0.19        2.68461
         O 15 -- La 12             0.23        2.68487
         O 19 -- La 9              0.23        2.68487
         O 22 -- La 14             0.18        2.68619
         O 32 -- La 14             0.18        2.68619
         O 22 -- La 9              0.18        2.68723
         O 32 -- La 12             0.18        2.68723
         O 21 -- La 6              0.18        2.68782
         O 37 -- La 2              0.18        2.68782
         O 42 -- La 4              0.14        2.68831
         O 10 -- La 7              0.14        2.68831
         O 24 -- La 10             0.17        2.69020
         O 30 -- La 11             0.17        2.69020
         O 14 -- La 6              0.18        2.69159
         O 44 -- La 2              0.18        2.69159
         O 35 -- La 3              0.18        2.69368
         O 31 -- La 5              0.18        2.69368
         O 28 -- La 7              0.19        2.69500
         O 33 -- La 4              0.19        2.69500
         O 15 -- O 33             -0.06        2.79703
         O 19 -- O 28             -0.06        2.79703
         O 15 -- O 31             -0.06        2.79915
         O 19 -- O 35             -0.06        2.79915
         O 11 -- O 37             -0.06        2.79947
         O 11 -- O 21             -0.06        2.79947
         O 37 -- O 56             -0.06        2.80097
         O 21 -- O 48             -0.06        2.80097
         O 14 -- O 30             -0.06        2.80099
         O 24 -- O 44             -0.06        2.80099
         O 31 -- O 45             -0.06        2.80258
         O 35 -- O 45             -0.06        2.80258
         O 9  -- O 30             -0.06        2.80308
         O 9  -- O 24             -0.06        2.80308
         O 11 -- O 32             -0.06        2.80337
         O 11 -- O 22             -0.06        2.80337
         O 15 -- O 27             -0.06        2.80369
         O 19 -- O 27             -0.06        2.80369
         O 15 -- O 32             -0.06        2.80453
         O 19 -- O 22             -0.06        2.80453
         O 44 -- O 52             -0.06        2.80818
         O 14 -- O 52             -0.06        2.80818
         O 17 -- O 26             -0.04        2.80982
         O 13 -- O 34             -0.04        2.80982
         O 23 -- O 47             -0.04        2.81061
         O 38 -- O 55             -0.04        2.81061
         O 46 -- O 53             -0.04        2.81072
         O 46 -- O 49             -0.04        2.81072
         O 18 -- O 25             -0.04        2.81122
         O 25 -- O 39             -0.04        2.81122
         O 33 -- O 48             -0.06        2.81139
         O 28 -- O 56             -0.06        2.81139
         O 34 -- O 47             -0.03        2.81197
         O 26 -- O 55             -0.03        2.81197
         O 40 -- O 53             -0.03        2.81342
         O 20 -- O 49             -0.03        2.81342
         O 47 -- O 51             -0.03        2.81344
         O 51 -- O 55             -0.03        2.81344
         O 47 -- O 49             -0.03        2.81357
         O 53 -- O 55             -0.03        2.81357
         O 12 -- O 29             -0.03        2.81417
         O 36 -- O 41             -0.03        2.81417
         O 43 -- O 51             -0.03        2.81446
         O 16 -- O 51             -0.03        2.81446
         O 29 -- O 46             -0.03        2.81453
         O 36 -- O 46             -0.03        2.81453
         O 12 -- O 53             -0.03        2.81555
         O 41 -- O 49             -0.03        2.81555
         O 34 -- O 43             -0.03        2.81644
         O 16 -- O 26             -0.03        2.81644
         O 9  -- O 38             -0.03        2.81650
         O 9  -- O 23             -0.03        2.81650
         O 17 -- O 25             -0.03        2.81726
         O 13 -- O 25             -0.03        2.81726
         O 35 -- O 42             -0.03        2.81733
         O 10 -- O 31             -0.03        2.81733
         O 45 -- O 54             -0.03        2.81751
         O 45 -- O 50             -0.03        2.81751
         O 18 -- O 26             -0.03        2.81758
         O 34 -- O 39             -0.03        2.81758
         O 10 -- O 24             -0.03        2.81801
         O 30 -- O 42             -0.03        2.81801
         O 38 -- O 40             -0.03        2.81864
         O 20 -- O 23             -0.03        2.81864
         O 18 -- O 50             -0.03        2.81982
         O 39 -- O 54             -0.03        2.81982
         O 18 -- O 21             -0.03        2.82037
         O 37 -- O 39             -0.03        2.82037
         O 17 -- O 24             -0.03        2.82057
         O 13 -- O 30             -0.03        2.82057
         O 17 -- O 36             -0.03        2.82175
         O 13 -- O 29             -0.03        2.82175
         O 54 -- O 56             -0.03        2.82220
         O 48 -- O 50             -0.03        2.82220
         O 14 -- O 29             -0.03        2.82329
         O 36 -- O 44             -0.03        2.82329
         O 10 -- O 54             -0.03        2.82486
         O 42 -- O 50             -0.03        2.82486
         O 14 -- O 28             -0.03        2.82514
         O 33 -- O 44             -0.03        2.82514
         O 52 -- O 56             -0.03        2.82516
         O 48 -- O 52             -0.03        2.82516
         O 20 -- O 27             -0.03        2.82726
         O 27 -- O 40             -0.03        2.82726
         O 38 -- O 42             -0.03        2.82741
         O 10 -- O 23             -0.03        2.82741
         O 22 -- O 43             -0.03        2.82932
         O 16 -- O 32             -0.03        2.82932
         O 12 -- O 22             -0.03        2.83038
         O 32 -- O 41             -0.03        2.83038
         O 12 -- O 21             -0.03        2.83153
         O 37 -- O 41             -0.03        2.83153
         O 35 -- O 43             -0.03        2.83318
         O 16 -- O 31             -0.03        2.83318
         O 20 -- O 28             -0.03        2.83456
         O 33 -- O 40             -0.03        2.83456
============================================================
 

Writing analysis data to 11.castep_bin

Writing model to 11.check
 
 A BibTeX formatted list of references used in this run has been written to 
 11.bib
 
Initialisation time =     54.42 s
Calculation time    =  32918.33 s
Finalisation time   =     54.82 s
Total time          =  33027.58 s
Peak Memory Use     = 2840252 kB
  
Overall parallel efficiency rating: Good (77%)                                  
  
Data was distributed by:-
G-vector (4-way); efficiency rating: Good (78%)                                 
k-point (14-way); efficiency rating: Excellent (99%)                            
