 +-------------------------------------------------+
 |                                                 |
 |      CCC   AA    SSS  TTTTT  EEEEE  PPPP        |
 |     C     A  A  S       T    E      P   P       |
 |     C     AAAA   SS     T    EEE    PPPP        |
 |     C     A  A     S    T    E      P           |
 |      CCC  A  A  SSS     T    EEEEE  P           |
 |                                                 |
 +-------------------------------------------------+
 |                                                 |
 | Welcome to Academic Release CASTEP version 16.11|          
 | Ab Initio Total Energy Program                  |
 |                                                 |
 | Authors:                                        |
 | M. Segall, M. Probert, C. Pickard, P. Hasnip,   |
 | S. Clark, K. Refson, J. R. Yates, M. Payne      |
 |                                                 |
 | Contributors:                                   |
 | P. Lindan, P. Haynes, J. White, V. Milman,      |
 | N. Govind, M. Gibson, P. Tulip, V. Cocula,      |
 | B. Montanari, D. Quigley, M. Glover,            |
 | L. Bernasconi, A. Perlov, M. Plummer,           |
 | E. McNellis, J. Meyer, J. Gale, D. Jochym       |
 | J. Aarons, B. Walker, R. Gillen, D. Jones       |
 | T. Green, I. J. Bush, C. J. Armstrong,          |
 | E. J. Higgins, E. L. Brown, M. S. McFly         |
 |                                                 |
 | Copyright (c) 2000 - 2015                       |
 |                                                 |
 |     Distributed under the terms of an           |
 |     Agreement between the United Kingdom        |
 |     Car-Parrinello (UKCP) Consortium,           |
 |     Daresbury Laboratory and Accelrys, Inc.     |
 |                                                 |
 | Please cite                                     |
 |                                                 |
 |     "First principles methods using CASTEP"     |
 |                                                 |
 |         Zeitschrift fuer Kristallographie       |
 |           220(5-6) pp. 567-570 (2005)           |
 |                                                 |
 | S. J. Clark, M. D. Segall, C. J. Pickard,       |
 | P. J. Hasnip, M. J. Probert, K. Refson,         |
 | M. C. Payne                                     |
 |                                                 |
 |       in all publications arising from          |
 |              your use of CASTEP                 |
 |                                                 |
 +-------------------------------------------------+
 
 
 Compiled for linux_x86_64_ifort16 on Sat, 23 Jul 2016 23:44:54 +0100
 from code version 
 203e84763863+ Castep161_branch Fri, 04 Mar 2016 19:21:07 +0000
 Compiler: Intel Fortran 16.0.3.210; Optimisation: fast
 MATHLIBS: Intel MKL(11.3.3) (LAPACK version 3.6.0)
 FFT Lib : mkl
 Fundamental constants values: CODATA 2010
 
 Run started: Fri, 29 Dec 2017 01:20:19 +0000
 +-------------------------------------------------+
 |                                                 |
 |           N   N    M   M    RRRR                |
 |           NN  N    MM MM    R   R               |
 |           N N N    M M M    RRRR                |
 |           N  NN    M   M    R  R                |
 |           N   N    M   M    R   R               |
 |                                                 |
 +-------------------------------------------------+
 |                                                 |
 | Welcome to Materials Studio CASTEP-NMR          |
 |                                                 |
 | Authors:                                        |
 | J.R. Yates, C.J. Pickard, F. Mauri              |
 |                                                 |
 | Contributors:                                   |
 | T.F.G. Green, S.A. Joyce                        |
 |                                                 |
 | Copyright (c) 2004 - 2015                       |
 |                                                 |
 | Please cite the appropriate publications in all |
 | work arising from your use of CASTEP NMR.       |
 |                                                 |
 | For NMR Shielding Tensors cite:                 |
 |    "All-electron magnetic response with         |
 |    pseudopotentials: NMR chemical shifts",      |
 |    C. J. Pickard, F. Mauri;                     |
 |    Physical Review B63 245101 (2001), and       |
 |                                                 |
 |    "Calculation of NMR Chemical Shifts          |
 |    for extended systems using                   |
 |    Ultrasoft Pseudopotentials",                 |
 |    J. R. Yates, C. J. Pickard and F. Mauri      |
 |    Physical Review B76 024401 (2007)            |
 |                                                 |
 | For Electric Field Gradients cite:              |
 |   "Accurate First Principles Prediction of 17O  |
 |    NMR Parameters in SiO2: Assignment of the    |
 |    Zeolite Ferrierite Spectrum"                 |
 |    M. Profeta, F. Mauri and C. J. Pickard       |
 |    J. Amer. Chem. Soc. 125 541 (2003)           |
 |                                                 |
 | For Spin-Spin (J) Couplings cite:               |
 |   "A first principles theory of NMR J-coupling  |
 |   in solid-state systems"                       |
 |   S.A. Joyce, J.R. Yates, C.J. Pickard, F. Mauri|
 |   J. Chem. Phys. 127 204107 (2007)              |
 |                                                 |
 |   "Relativistic NMR J-coupling with ultrasoft   |
 |   pseudopotentials and the zeroth-order regular |
 |   approximation"                                |
 |   T.F.G. Green and J.R. Yates                   |
 |   J. Chem. Phys. 140 234106 (2014)              |
 |                                                 |
 +-------------------------------------------------+
 
 
 Atomic calculation performed for O: 1s2 2s2 2p4
 
 Converged in 44 iterations to an ae energy of -2040.855 eV
 
 
 Atomic calculation performed for O: 1s2 2s2 2p4
 
 Exceeded max iterations: converged to 0.000000062 eV
 
   ============================================================                
   | Pseudopotential Report - Date of generation 29-12-2017   |                
   ------------------------------------------------------------                
   | Element: O Ionic charge:  6.00 Level of theory: PBE      |                
   | Atomic Solver: ZORA (scalar)                             |                
   |                                                          |                
   |               Reference Electronic Structure             |                
   |         Orbital         Occupation         Energy        |                
   |            2s              2.000           -0.881        |                
   |            2p              4.000           -0.332        |                
   |                                                          |                
   |                 Pseudopotential Definition               |                
   |        Beta     l      e      Rc     scheme   norm       |                
   |          1      0   -0.881   1.100     qc      0         |                
   |          2      0    0.250   1.100     qc      0         |                
   |          3      1   -0.332   1.100     qc      0         |                
   |          4      1    0.250   1.100     qc      0         |                
   |         loc     2    0.000   1.100     pn      0         |                
   |                                                          |                
   | Augmentation charge Rinner = 0.769                       |                
   | Partial core correction Rc = 0.769                       |                
   ------------------------------------------------------------                
   | "2|1.1|15|18|20|20:21(qc=7)"                             |                
   ------------------------------------------------------------                
   |      Author: Chris J. Pickard, Cambridge University      |                
   ============================================================                
 
 Atomic calculation performed for Zr: 1s2 2s2 2p6 3s2 3p6 3d10 4s2 4p6 4d2 5s2
 
 Converged in 53 iterations to an ae energy of -97719.888 eV
 
 
 Atomic calculation performed for Zr: 1s2 2s2 2p6 3s2 3p6 3d10 4s2 4p6 4d2 5s2
 
 Exceeded max iterations: converged to 0.000000970 eV
 
 Warning: ion_atom_descreen_psp: negative charge density encountered
   ============================================================                
   | Pseudopotential Report - Date of generation 29-12-2017   |                
   ------------------------------------------------------------                
   | Element: Zr Ionic charge: 12.00 Level of theory: PBE     |                
   | Atomic Solver: ZORA (scalar)                             |                
   |                                                          |                
   |               Reference Electronic Structure             |                
   |         Orbital         Occupation         Energy        |                
   |            4s              2.000           -2.003        |                
   |            4p              6.000           -1.193        |                
   |            5s              2.000           -0.163        |                
   |            4d              2.000           -0.132        |                
   |                                                          |                
   |                 Pseudopotential Definition               |                
   |        Beta     l      e      Rc     scheme   norm       |                
   |          1      0   -2.003   2.105     qc      0         |                
   |          2      0   -0.163   2.105     qc      0         |                
   |          3      0    0.250   2.105     qc      0         |                
   |          4      1   -1.193   2.105     qc      0         |                
   |          5      1    0.250   2.105     qc      0         |                
   |          6      2   -0.132   2.105     qc      0         |                
   |          7      2    0.250   2.105     qc      0         |                
   |         loc     3    0.000   2.105     pn      0         |                
   |                                                          |                
   | Augmentation charge Rinner = 1.471                       |                
   | Partial core correction Rc = 1.471                       |                
   ------------------------------------------------------------                
   | "3|2.1|7|8|9|40U:50:41:42"                               |                
   ------------------------------------------------------------                
   |      Author: Chris J. Pickard, Cambridge University      |                
   ============================================================                
 
 Atomic calculation performed for Sn:
 1s2 2s2 2p6 3s2 3p6 3d10 4s2 4p6 4d10 5s2 5p2
 
 Converged in 58 iterations to an ae energy of -167539.320 eV
 
 
 Atomic calculation performed for Sn:
 1s2 2s2 2p6 3s2 3p6 3d10 4s2 4p6 4d10 5s2 5p2
 
 Exceeded max iterations: converged to 0.000001154 eV
 
   ============================================================                
   | Pseudopotential Report - Date of generation 29-12-2017   |                
   ------------------------------------------------------------                
   | Element: Sn Ionic charge: 14.00 Level of theory: PBE     |                
   | Atomic Solver: ZORA (scalar)                             |                
   |                                                          |                
   |               Reference Electronic Structure             |                
   |         Orbital         Occupation         Energy        |                
   |            4d             10.000           -0.950        |                
   |            5s              2.000           -0.388        |                
   |            5p              2.000           -0.136        |                
   |                                                          |                
   |                 Pseudopotential Definition               |                
   |        Beta     l      e      Rc     scheme   norm       |                
   |          1      0   -0.388   2.199     qc      0         |                
   |          2      0    0.250   2.199     qc      0         |                
   |          3      1   -0.136   2.199     qc      0         |                
   |          4      1    0.250   2.199     qc      0         |                
   |          5      2   -0.950   2.199     qc      0         |                
   |          6      2    0.250   2.199     qc      0         |                
   |         loc     3    0.000   2.199     pn      0         |                
   |                                                          |                
   | Augmentation charge Rinner = 1.537                       |                
   | Partial core correction Rc = 1.537                       |                
   ------------------------------------------------------------                
   | "3|2.2|7|8|9|50:51:42"                                   |                
   ------------------------------------------------------------                
   |      Author: Chris J. Pickard, Cambridge University      |                
   ============================================================                
 
 Atomic calculation performed for La:
 1s2 2s2 2p6 3s2 3p6 3d10 4s2 4p6 4d10 5s2 5p6 5d1 6s2
 
 Converged in 56 iterations to an ae energy of -230121.495 eV
 
 
 Atomic calculation performed for La:
 1s2 2s2 2p6 3s2 3p6 3d10 4s2 4p6 4d10 5s2 5p6 5d1 6s2
 
 Exceeded max iterations: converged to 0.000000907 eV
 
 Warning: ion_atom_descreen_psp: negative charge density encountered
   ============================================================                
   | Pseudopotential Report - Date of generation 29-12-2017   |                
   ------------------------------------------------------------                
   | Element: La Ionic charge: 11.00 Level of theory: PBE     |                
   | Atomic Solver: ZORA (scalar)                             |                
   |                                                          |                
   |               Reference Electronic Structure             |                
   |         Orbital         Occupation         Energy        |                
   |            5s              2.000           -1.430        |                
   |            5p              6.000           -0.823        |                
   |            6s              2.000           -0.135        |                
   |            5d              1.000           -0.114        |                
   |                                                          |                
   |                 Pseudopotential Definition               |                
   |        Beta     l      e      Rc     scheme   norm       |                
   |          1      0   -1.430   2.298     qc      0         |                
   |          2      0   -0.135   2.298     qc      0         |                
   |          3      0    0.250   2.298     qc      0         |                
   |          4      1   -0.823   2.298     qc      0         |                
   |          5      1    0.250   2.298     qc      0         |                
   |          6      2   -0.114   2.298     qc      0         |                
   |          7      2    0.250   2.298     qc      0         |                
   |         loc     2    0.000   2.298     pn      0         |                
   |                                                          |                
   | Augmentation charge Rinner = 1.606                       |                
   | Partial core correction Rc = 1.606                       |                
   ------------------------------------------------------------                
   | "2|2.3|5|6|7|50U:60:51:52(qc=4.5)"                       |                
   ------------------------------------------------------------                
   |      Author: Chris J. Pickard, Cambridge University      |                
   ============================================================                
 
 Pseudo atomic calculation performed for O 2s2 2p4
 
 Converged in 39 iterations to a total energy of -432.6554 eV
 
 
 Pseudo atomic calculation performed for Zr 4s2 4p6 4d2 5s2
 
 Converged in 38 iterations to a total energy of -1285.4931 eV
 
 
 Pseudo atomic calculation performed for Sn 4d10 5s2 5p2
 
 Converged in 48 iterations to a total energy of -2044.5414 eV
 
 
 Pseudo atomic calculation performed for La 5s2 5p6 5d1 6s2
 
 Converged in 34 iterations to a total energy of -968.0372 eV
 
 Calculation parallelised over 56 processes.
 Data is distributed by G-vector(4-way) and k-point(14-way)

 ************************************ Title ************************************
 nmr testing

 ***************************** General Parameters ******************************
  
 output verbosity                               : normal  (1)
 write checkpoint data to                       : 19.check
 type of calculation                            : Magnetic Resonance
 stress calculation                             : on
 density difference calculation                 : off
 electron localisation func (ELF) calculation   : off
 Hirshfeld analysis                             : off
 unlimited duration calculation
 timing information                             : on
 memory usage estimate                          : on
 write final potential to formatted file        : off
 write final density to formatted file          : off
 write structure in CIF formatted file          : on
 write structure in CELL formatted file         : on
 write BibTeX reference list                    : on
 write OTFG pseudopotential files               : on
 checkpoint writing                             : both castep_bin and check files
  
 output         length unit                     : A
 output           mass unit                     : amu
 output           time unit                     : ps
 output         charge unit                     : e
 output           spin unit                     : hbar/2
 output         energy unit                     : eV
 output          force unit                     : eV/A
 output       velocity unit                     : A/ps
 output       pressure unit                     : GPa
 output     inv_length unit                     : 1/A
 output      frequency unit                     : cm-1
 output force constant unit                     : eV/A**2
 output         volume unit                     : A**3
 output   IR intensity unit                     : (D/A)**2/amu
 output         dipole unit                     : D
 output         efield unit                     : eV/A/e
 output        entropy unit                     : J/mol/K
  
 wavefunctions paging                           : none
 random number generator seed                   : randomised (12020937)
 data distribution                              : optimal for this architecture
 optimization strategy                          : maximize speed(+++)

 *********************** Exchange-Correlation Parameters ***********************
  
 using functional                               : Perdew Burke Ernzerhof
 relativistic treatment                         : ZORA
 DFT+D: Semi-empirical dispersion correction    : off

 ************************* Pseudopotential Parameters **************************
  
 pseudopotential representation                 : reciprocal space
 <beta|phi> representation                      : reciprocal space
 spin-orbit coupling                            : off

 **************************** Basis Set Parameters *****************************
  
 plane wave basis set cut-off                   :   816.3416   eV
 size of standard grid                          :     1.7500
 size of   fine   gmax                          :    25.6161   1/A
 finite basis set correction                    : automatic
 number of sample energies                      :          3
           sample  spacing                      :     5.0000   eV

 **************************** Electronic Parameters ****************************
  
 number of  electrons                           :  712.0    
 net charge of system                           :  0.000    
 treating system as non-spin-polarized
 number of bands                                :        427

 ********************* Electronic Minimization Parameters **********************
  
 Method: Treating system as metallic with density mixing treatment of electrons,
         and number of  SD  steps               :          1
         and number of  CG  steps               :          4
  
 total energy / atom convergence tol.           : 0.1000E-08   eV
 eigen-energy convergence tolerance             : 0.2472E-09   eV
 max force / atom convergence tol.              : ignored
 convergence tolerance window                   :          3   cycles
 max. number of SCF cycles                      :         50
 number of fixed-spin iterations                :         10
 smearing scheme                                : Gaussian
 smearing width                                 : 0.2000       eV
 Fermi energy convergence tolerance             : 0.2721E-13   eV
 periodic dipole correction                     : NONE

 ************************** Density Mixing Parameters **************************
  
 density-mixing scheme                          : Broyden
 max. length of mixing history                  :         20
 charge density mixing amplitude                : 0.8000    
 cut-off energy for mixing                      :  816.3       eV

 *********************** Population Analysis Parameters ************************
  
 Population analysis with cutoff                :  3.000       A

 ************************ Magnetic Resonance Parameters ************************
  
 Magnetic Resonance Property                    : Chemical Shielding + EFG
 Position Operator Method                       : crystal
 max. number of MagRes CG steps                 :        250
 convergence tolerance window                   :          2   cycles
 energy convergence tolerance                   : 0.1000E-11   eV
 band convergence tolerance                     : 0.1000E-08   eV

 *******************************************************************************
  
 
                           -------------------------------
                                      Unit Cell
                           -------------------------------
        Real Lattice(A)                      Reciprocal Lattice(1/A)
  10.9112924  -0.0000104  -0.0000106        0.5758424   0.0000006   0.0000006
  -0.0000104  10.9112925  -0.0000104        0.0000006   0.5758424   0.0000005
  -0.0000106  -0.0000104  10.9112924        0.0000006   0.0000005   0.5758424
 
                       Lattice parameters(A)       Cell Angles
                    a =   10.911292          alpha =   90.000109
                    b =   10.911293          beta  =   90.000111
                    c =   10.911292          gamma =   90.000110
 
                       Current cell volume = 1299.058132       A**3
 
                           -------------------------------
                                     Cell Contents
                           -------------------------------
                         Total number of ions in cell =   88
                      Total number of species in cell =    4
                        Max number of any one species =   56
 
            xxxxxxxxxxxxxxxxxxxxxxxxxxxxxxxxxxxxxxxxxxxxxxxxxxxxxxxxxxxx
            x  Element    Atom        Fractional coordinates of atoms  x
            x            Number           u          v          w      x
            x----------------------------------------------------------x
            x  O            1         0.125018   0.124993   0.125019   x 
            x  O            2         0.624993   0.125019   0.625018   x 
            x  O            3         0.124993   0.624993   0.624993   x 
            x  O            4         0.625019   0.625018   0.124993   x 
            x  O            5         0.875007   0.375007   0.375007   x 
            x  O            6         0.874982   0.874981   0.875007   x 
            x  O            7         0.375007   0.374982   0.874981   x 
            x  O            8         0.374981   0.875007   0.374982   x 
            x  O            9         0.420927   0.124047   0.124929   x 
            x  O           10         0.329077   0.125953   0.624931   x 
            x  O           11         0.829078   0.624047   0.625073   x 
            x  O           12         0.920929   0.625952   0.125071   x 
            x  O           13         0.124835   0.419627   0.125323   x 
            x  O           14         0.624836   0.330386   0.124680   x 
            x  O           15         0.625166   0.830384   0.625324   x 
            x  O           16         0.125165   0.919627   0.624678   x 
            x  O           17         0.125952   0.125071   0.420929   x 
            x  O           18         0.124047   0.625073   0.329078   x 
            x  O           19         0.625953   0.624931   0.829077   x 
            x  O           20         0.624047   0.124929   0.920927   x 
            x  O           21         0.875953   0.670922   0.374927   x 
            x  O           22         0.874048   0.579071   0.874929   x 
            x  O           23         0.375953   0.079073   0.875071   x 
            x  O           24         0.374047   0.170923   0.375069   x 
            x  O           25         0.170922   0.374927   0.375953   x 
            x  O           26         0.079071   0.874929   0.374048   x 
            x  O           27         0.579073   0.875071   0.875953   x 
            x  O           28         0.670923   0.375069   0.874047   x 
            x  O           29         0.874835   0.375322   0.080373   x 
            x  O           30         0.374834   0.374676   0.169616   x 
            x  O           31         0.375164   0.875320   0.669614   x 
            x  O           32         0.875165   0.874677   0.580373   x 
            x  O           33         0.669616   0.874834   0.374676   x 
            x  O           34         0.080373   0.375165   0.874677   x 
            x  O           35         0.375320   0.669614   0.875164   x 
            x  O           36         0.875322   0.080373   0.374835   x 
            x  O           37         0.874927   0.375953   0.670922   x 
            x  O           38         0.375071   0.875953   0.079073   x 
            x  O           39         0.125073   0.329078   0.624047   x 
            x  O           40         0.624929   0.920927   0.124047   x 
            x  O           41         0.919627   0.125323   0.624835   x 
            x  O           42         0.330384   0.625324   0.125166   x 
            x  O           43         0.124678   0.625165   0.919627   x 
            x  O           44         0.624680   0.124836   0.330386   x 
            x  O           45         0.419627   0.624678   0.625165   x 
            x  O           46         0.830386   0.124680   0.124836   x 
            x  O           47         0.125324   0.125166   0.830384   x 
            x  O           48         0.625323   0.624835   0.419627   x 
            x  O           49         0.874676   0.169616   0.874834   x 
            x  O           50         0.374677   0.580373   0.375165   x 
            x  O           51         0.169614   0.875164   0.875320   x 
            x  O           52         0.580373   0.374835   0.375322   x 
            x  O           53         0.875069   0.874047   0.170923   x 
            x  O           54         0.374929   0.374048   0.579071   x 
            x  O           55         0.124931   0.829077   0.125953   x 
            x  O           56         0.625071   0.420929   0.625952   x 
            x  Zr           1         0.500000   0.500031   0.499969   x 
            x  Zr           2         0.250000   0.750098  -0.000017   x 
            x  Zr           3         0.750000   1.000017   0.249902   x 
            x  Zr           4         0.000000   0.250096   0.749904   x 
            x  Zr           5         0.749902   0.250000   1.000017   x 
            x  Zr           6         0.250098  -0.000017   0.750000   x 
            x  Zr           7         0.750096   0.749904   0.500000   x 
            x  Zr           8         0.249904   0.500000   0.250096   x 
            x  Zr           9         1.000031   0.499969  -0.000000   x 
            x  Zr          10         0.500017   0.249902   0.250000   x 
            x  Zr          11         0.499983   0.750000   0.750098   x 
            x  Zr          12        -0.000031   0.000000   0.500031   x 
            x  Sn           1        -0.000000   0.750002   0.249998   x 
            x  Sn           2         0.500000   0.000000   0.000000   x 
            x  Sn           3         0.250002   0.249998   0.500000   x 
            x  Sn           4         0.749998   0.500000   0.750002   x 
            x  La           1        -0.000000   0.000465   0.999535   x 
            x  La           2         0.749999   0.249537   0.499537   x 
            x  La           3         0.250001   0.500463   0.750463   x 
            x  La           4         0.500000   0.749537   0.250463   x 
            x  La           5         0.250463   0.750001   0.500463   x 
            x  La           6         0.749537   0.499537   0.249999   x 
            x  La           7         0.500000   0.250001   0.749999   x 
            x  La           8         0.000000   0.500000   0.500000   x 
            x  La           9         0.750001   0.749999   0.000000   x 
            x  La          10         0.249999  -0.000000   0.250001   x 
            x  La          11         0.249537   0.250463  -0.000000   x 
            x  La          12         0.750463   0.000000   0.749537   x 
            x  La          13         0.500465   0.999535   0.500000   x 
            x  La          14         0.000463   0.750463   0.750001   x 
            x  La          15         0.999537   0.249999   0.249537   x 
            x  La          16         0.499535   0.500000   0.000465   x 
            xxxxxxxxxxxxxxxxxxxxxxxxxxxxxxxxxxxxxxxxxxxxxxxxxxxxxxxxxxxx
 
 
                         No user defined ionic velocities
 
                           -------------------------------
                                   Details of Species
                           -------------------------------
 
                               Mass of species in AMU
                                    O   15.9994000
                                    Zr   91.2240000
                                    Sn  118.7100000
                                    La  138.9055000
 
                          Electric Quadrupole Moment (Barn)
                                    O   -0.0255800 Isotope 17
                                    Zr   -0.1760000 Isotope 91
                                    Sn    1.0000000 No Isotope Defined
                                    La    0.2000000 Isotope139
 
                          Files used for pseudopotentials:
                                    O 2|1.1|15|18|20|20:21(qc=7)
                                    Zr 3|2.1|7|8|9|40U:50:41:42
                                    Sn 3|2.2|7|8|9|50:51:42
                                    La 2|2.3|5|6|7|50U:60:51:52(qc=4.5)
 
                           -------------------------------
                              k-Points For BZ Sampling
                           -------------------------------
                       MP grid size for SCF calculation is  3  3  3
                            with an offset of   0.000  0.000  0.000
                       Number of kpoints used =            14
 
                           -------------------------------
                               Symmetry and Constraints
                           -------------------------------
 
                      Maximum deviation from symmetry =  0.00000         ANG
 
         There are no symmetry operations specified or generated for this cell
                      Number of ionic constraints     =           3
                      Point group of crystal =     1: C1, 1, 1
                      Space group of crystal =   155: R32, R 3 2"
 
 
                         Centre of mass is constrained
             Set iprint > 1 for details of linear ionic constraints
 
                         Number of cell constraints= 0
                         Cell constraints are:  1 2 3 4 5 6
 
                         External pressure/stress (GPa)
                          0.00000   0.00000   0.00000
                                    0.00000   0.00000
                                              0.00000
  
+---------------- MEMORY AND SCRATCH DISK ESTIMATES PER PROCESS --------------+
|                                                     Memory          Disk    |
| Baseline code, static data and system overhead      322.0 MB         0.0 MB |
| BLAS internal memory storage                          0.0 MB         0.0 MB |
| Model and support data                             1320.1 MB         0.0 MB |
| Electronic energy minimisation requirements         378.8 MB         0.0 MB |
| Force calculation requirements                       24.1 MB         0.0 MB |
| Stress calculation requirements                      28.3 MB         0.0 MB |
|                                               ----------------------------- |
| Approx. total storage required per process         2020.9 MB         0.0 MB |
|                                                                             |
| Requirements will fluctuate during execution and may exceed these estimates |
+-----------------------------------------------------------------------------+
Calculating finite basis set correction with  3 cut-off energies.
Calculating total energy with cut-off of  806.342eV.
------------------------------------------------------------------------ <-- SCF
SCF loop      Energy           Fermi           Energy gain       Timer   <-- SCF
                               energy          per atom          (sec)   <-- SCF
------------------------------------------------------------------------ <-- SCF
Initial  -5.23835721E+004  0.00000000E+000                        75.03  <-- SCF
      1  -6.15146306E+004  7.74617558E+000   1.03762028E+002     218.28  <-- SCF
      2  -6.40987877E+004  7.67905172E+000   2.93654216E+001     312.55  <-- SCF
      3  -6.41739464E+004  7.31675108E+000   8.54076249E-001     417.39  <-- SCF
      4  -6.41719298E+004  7.83460035E+000  -2.29160609E-002     547.08  <-- SCF
      5  -6.40589236E+004  7.82404195E+000  -1.28416139E+000     675.60  <-- SCF
      6  -6.40608385E+004  7.76561298E+000   2.17606771E-002     834.03  <-- SCF
      7  -6.40606442E+004  7.78805563E+000  -2.20792143E-003     968.95  <-- SCF
      8  -6.40606840E+004  7.78582731E+000   4.51916504E-004    1130.43  <-- SCF
      9  -6.40607006E+004  7.79939676E+000   1.88583339E-004    1278.05  <-- SCF
     10  -6.40607035E+004  7.79976550E+000   3.26967475E-005    1421.58  <-- SCF
     11  -6.40607026E+004  7.80150834E+000  -9.27871561E-006    1563.70  <-- SCF
     12  -6.40607030E+004  7.80264423E+000   4.30139528E-006    1719.46  <-- SCF
     13  -6.40607031E+004  7.80290532E+000   6.12534861E-007    1860.50  <-- SCF
     14  -6.40607031E+004  7.80311846E+000   1.16580439E-007    1993.47  <-- SCF
     15  -6.40607031E+004  7.80313906E+000  -2.34774319E-009    2117.30  <-- SCF
     16  -6.40607031E+004  7.80314066E+000  -1.13702992E-009    2225.30  <-- SCF
     17  -6.40607031E+004  7.80314154E+000   2.11909978E-010    2328.14  <-- SCF
     18  -6.40607031E+004  7.80314057E+000   6.21527607E-011    2427.07  <-- SCF
------------------------------------------------------------------------ <-- SCF
 
Final energy, E             =  -64060.70308235     eV
Final free energy (E-TS)    =  -64060.70308235     eV
(energies not corrected for finite basis set)
 
NB est. 0K energy (E-0.5TS)      =  -64060.70308235     eV
 
Calculating total energy with cut-off of  811.342eV.
------------------------------------------------------------------------ <-- SCF
SCF loop      Energy           Fermi           Energy gain       Timer   <-- SCF
                               energy          per atom          (sec)   <-- SCF
------------------------------------------------------------------------ <-- SCF
Initial  -6.40607031E+004  0.00000000E+000                      2462.55  <-- SCF
      1  -6.40607055E+004  7.80313330E+000   2.78461673E-005    2574.59  <-- SCF
      2  -6.40607055E+004  7.80313330E+000   1.91520498E-010    2668.69  <-- SCF
      3  -6.40607055E+004  7.80313130E+000   1.64838402E-008    2759.92  <-- SCF
      4  -6.40607055E+004  7.80313262E+000   5.44469433E-010    2852.13  <-- SCF
      5  -6.40607055E+004  7.80313346E+000  -3.65604474E-011    2940.98  <-- SCF
------------------------------------------------------------------------ <-- SCF
 
Final energy, E             =  -64060.70553433     eV
Final free energy (E-TS)    =  -64060.70553433     eV
(energies not corrected for finite basis set)
 
NB est. 0K energy (E-0.5TS)      =  -64060.70553433     eV
 
Calculating total energy with cut-off of  816.342eV.
------------------------------------------------------------------------ <-- SCF
SCF loop      Energy           Fermi           Energy gain       Timer   <-- SCF
                               energy          per atom          (sec)   <-- SCF
------------------------------------------------------------------------ <-- SCF
Initial  -6.40607055E+004  0.00000000E+000                      2976.33  <-- SCF
      1  -6.40607085E+004  7.80313046E+000   3.34380969E-005    3087.05  <-- SCF
      2  -6.40607085E+004  7.80313046E+000   2.04879123E-010    3174.54  <-- SCF
      3  -6.40607085E+004  7.80312608E+000   2.11116898E-008    3262.07  <-- SCF
      4  -6.40607085E+004  7.80312867E+000   6.76790129E-010    3348.97  <-- SCF
      5  -6.40607085E+004  7.80312832E+000  -1.84208408E-011    3435.93  <-- SCF
------------------------------------------------------------------------ <-- SCF
 
Final energy, E             =  -64060.70847881     eV
Final free energy (E-TS)    =  -64060.70847881     eV
(energies not corrected for finite basis set)
 
NB est. 0K energy (E-0.5TS)      =  -64060.70847881     eV
 
 For future reference: finite basis dEtot/dlog(Ecut) =      -0.435691eV
 Total energy corrected for finite basis set =  -64060.708449 eV
 
  =====================================================================
  +       Calculation of Nuclear Magnetic Resonance Parameters        +
  + ================================================================= +
 
  Starting Calculation of Electric Field Gradient Tensors         |<-- EFG
  +---------------- MEMORY AND SCRATCH DISK ESTIMATES PER PROCESS --------------+
  |                                                     Memory          Disk    |
  | Model and support data                             1317.8 MB         0.0 MB |
  | NMR EFG calculation requirements                    364.4 MB         0.0 MB |
  |                                               ----------------------------- |
  | Approx. total storage required per process         1682.3 MB         0.0 MB |
  |                                                                             |
  | Requirements will fluctuate during execution and may exceed these estimates |
  +-----------------------------------------------------------------------------+
  Total Time for EFG Tensors                     384.14 sec       |<-- EFG
 
  Starting Calculation of Chemical Shielding Tensors              |<-- NMR
  +---------------- MEMORY AND SCRATCH DISK ESTIMATES PER PROCESS --------------+
  |                                                     Memory          Disk    |
  | Model and support data                             1317.8 MB         0.0 MB |
  | NMR chemical shift calculation requirements         559.8 MB         0.0 MB |
  |                                               ----------------------------- |
  | Approx. total storage required per process         1877.6 MB         0.0 MB |
  |                                                                             |
  | Requirements will fluctuate during execution and may exceed these estimates |
  +-----------------------------------------------------------------------------+
  Starting k-point:   1 of   1                                    |<-- NMR
  Total Time for step 1 of 6:                   3193.76 sec       |<-- NMR
  Total Time for step 2 of 6:                   3171.44 sec       |<-- NMR
  Total Time for step 3 of 6:                   3182.15 sec       |<-- NMR
  Total Time for step 4 of 6:                   3172.95 sec       |<-- NMR
  Total Time for step 5 of 6:                   3186.67 sec       |<-- NMR
  Total Time for step 6 of 6:                   3180.58 sec       |<-- NMR
  Total Time for Chemical Shielding Tensors    28148.59 sec       |<-- NMR
 
  ========================================================================
  |           Chemical Shielding and Electric Field Gradient Tensors     |
  |----------------------------------------------------------------------|
  |     Nucleus                Shielding tensor             EFG Tensor   |
  |  Species       Ion    Iso(ppm)   Aniso(ppm)  Asym    Cq(MHz)    Eta  |
  |    O           1     -315.91       3.78      0.09   1.979E-02   0.05 |
  |    O           2     -315.91       3.78      0.09   1.979E-02   0.05 |
  |    O           3     -315.92       3.87      0.00   1.843E-02   0.00 |
  |    O           4     -315.91       3.78      0.09   1.979E-02   0.05 |
  |    O           5     -315.92       3.88      0.00   1.843E-02   0.00 |
  |    O           6     -315.91       3.78      0.09   1.979E-02   0.05 |
  |    O           7     -315.91       3.78      0.09   1.979E-02   0.05 |
  |    O           8     -315.91       3.78      0.09   1.979E-02   0.05 |
  |    O           9      -86.44      93.17      0.24  -3.162E+00   0.12 |
  |    O          10      -86.44      92.88      0.24  -3.162E+00   0.12 |
  |    O          11      -86.51      93.44      0.24  -3.160E+00   0.11 |
  |    O          12      -86.25      92.21      0.24  -3.165E+00   0.12 |
  |    O          13     -163.98     155.10      0.81   1.067E+00   0.90 |
  |    O          14     -164.00     155.11      0.81   1.069E+00   0.90 |
  |    O          15     -164.06     154.01      0.81   1.063E+00   0.91 |
  |    O          16     -163.96     154.62      0.81   1.066E+00   0.91 |
  |    O          17      -86.25      92.21      0.24  -3.165E+00   0.12 |
  |    O          18      -86.51      93.44      0.24  -3.160E+00   0.11 |
  |    O          19      -86.44      92.88      0.24  -3.162E+00   0.12 |
  |    O          20      -86.44      93.17      0.24  -3.162E+00   0.12 |
  |    O          21      -86.51      93.44      0.24  -3.160E+00   0.11 |
  |    O          22      -86.25      92.21      0.24  -3.165E+00   0.12 |
  |    O          23      -86.44      93.17      0.24  -3.162E+00   0.12 |
  |    O          24      -86.43      92.88      0.24  -3.162E+00   0.12 |
  |    O          25      -86.51      93.44      0.24  -3.160E+00   0.11 |
  |    O          26      -86.25      92.21      0.24  -3.165E+00   0.12 |
  |    O          27      -86.44      93.17      0.24  -3.162E+00   0.12 |
  |    O          28      -86.43      92.89      0.24  -3.162E+00   0.12 |
  |    O          29     -163.96     154.62      0.81   1.066E+00   0.91 |
  |    O          30     -164.06     154.01      0.81   1.063E+00   0.91 |
  |    O          31     -164.00     155.11      0.81   1.069E+00   0.90 |
  |    O          32     -163.98     155.10      0.81   1.067E+00   0.90 |
  |    O          33     -164.06     154.01      0.81   1.063E+00   0.91 |
  |    O          34     -163.98     155.10      0.81   1.067E+00   0.90 |
  |    O          35     -164.00     155.11      0.81   1.069E+00   0.90 |
  |    O          36     -163.96     154.62      0.81   1.066E+00   0.91 |
  |    O          37      -86.51      93.44      0.24  -3.160E+00   0.11 |
  |    O          38      -86.44      93.17      0.24  -3.162E+00   0.12 |
  |    O          39      -86.51      93.44      0.24  -3.160E+00   0.11 |
  |    O          40      -86.44      93.18      0.24  -3.162E+00   0.12 |
  |    O          41     -163.98     155.10      0.81   1.067E+00   0.90 |
  |    O          42     -164.06     154.01      0.81   1.063E+00   0.91 |
  |    O          43     -163.96     154.62      0.81   1.066E+00   0.91 |
  |    O          44     -164.00     155.11      0.81   1.069E+00   0.90 |
  |    O          45     -163.96     154.62      0.81   1.066E+00   0.91 |
  |    O          46     -164.00     155.11      0.81   1.069E+00   0.90 |
  |    O          47     -164.06     154.01      0.81   1.063E+00   0.91 |
  |    O          48     -163.98     155.10      0.81   1.067E+00   0.90 |
  |    O          49     -164.06     154.01      0.81   1.063E+00   0.91 |
  |    O          50     -163.98     155.10      0.81   1.067E+00   0.90 |
  |    O          51     -164.00     155.11      0.81   1.069E+00   0.90 |
  |    O          52     -163.96     154.62      0.81   1.066E+00   0.91 |
  |    O          53      -86.43      92.88      0.24  -3.162E+00   0.12 |
  |    O          54      -86.25      92.21      0.24  -3.165E+00   0.12 |
  |    O          55      -86.43      92.88      0.24  -3.162E+00   0.12 |
  |    O          56      -86.25      92.21      0.24  -3.165E+00   0.12 |
  |    Zr          1     1632.04    -126.95      0.10  -3.937E+01   0.07 |
  |    Zr          2     1631.65    -126.90      0.10  -3.938E+01   0.06 |
  |    Zr          3     1631.65    -126.90      0.10  -3.938E+01   0.06 |
  |    Zr          4     1631.81    -126.82      0.09  -3.939E+01   0.08 |
  |    Zr          5     1631.65    -126.90      0.10  -3.938E+01   0.06 |
  |    Zr          6     1631.65    -126.90      0.10  -3.938E+01   0.06 |
  |    Zr          7     1631.82    -126.83      0.09  -3.939E+01   0.08 |
  |    Zr          8     1631.81    -126.82      0.09  -3.939E+01   0.08 |
  |    Zr          9     1632.04    -126.95      0.10  -3.937E+01   0.07 |
  |    Zr         10     1631.65    -126.90      0.10  -3.938E+01   0.06 |
  |    Zr         11     1631.65    -126.90      0.10  -3.938E+01   0.06 |
  |    Zr         12     1632.04    -126.95      0.10  -3.937E+01   0.07 |
  |    Sn          1     3246.29     -38.46      0.03   1.297E+02   0.00 |
  |    Sn          2     3246.37     -37.51      0.00   1.296E+02   0.00 |
  |    Sn          3     3246.29     -38.45      0.03   1.297E+02   0.00 |
  |    Sn          4     3246.29     -38.46      0.03   1.297E+02   0.00 |
  |    La          1     4754.93     867.28      0.04  -8.386E+01   0.05 |
  |    La          2     4754.94     867.93      0.03  -8.395E+01   0.05 |
  |    La          3     4754.94     867.93      0.03  -8.395E+01   0.05 |
  |    La          4     4754.99     867.69      0.03  -8.393E+01   0.04 |
  |    La          5     4754.94     867.93      0.03  -8.395E+01   0.05 |
  |    La          6     4754.94     867.93      0.03  -8.395E+01   0.05 |
  |    La          7     4659.53     666.26      0.00  -7.962E+01   0.00 |
  |    La          8     4659.70     667.34      0.00  -7.960E+01   0.00 |
  |    La          9     4659.53     666.26      0.00  -7.962E+01   0.00 |
  |    La         10     4659.53     666.26      0.00  -7.962E+01   0.00 |
  |    La         11     4754.99     867.69      0.03  -8.393E+01   0.04 |
  |    La         12     4754.99     867.69      0.03  -8.393E+01   0.04 |
  |    La         13     4754.93     867.28      0.04  -8.386E+01   0.05 |
  |    La         14     4754.94     867.93      0.03  -8.395E+01   0.05 |
  |    La         15     4754.94     867.93      0.03  -8.395E+01   0.05 |
  |    La         16     4754.93     867.28      0.04  -8.386E+01   0.05 |
  ========================================================================
 
 *********************** Forces ***********************
 *                                                    *
 *            Cartesian components (eV/A)             *
 * -------------------------------------------------- *
 *                   x            y            z      *
 *                                                    *
 * O         1     -0.00925      0.00856     -0.00837 *
 * O         2      0.00856     -0.00837     -0.00925 *
 * O         3      0.00744      0.00744      0.00744 *
 * O         4     -0.00837     -0.00925      0.00856 *
 * O         5     -0.00744     -0.00744     -0.00744 *
 * O         6      0.00925      0.00837     -0.00856 *
 * O         7     -0.00856      0.00925      0.00837 *
 * O         8      0.00837     -0.00856      0.00925 *
 * O         9     -0.00218     -0.01448     -0.01843 *
 * O        10      0.00387      0.01085     -0.01584 *
 * O        11      0.00630     -0.01426      0.01713 *
 * O        12     -0.00213      0.01141      0.01787 *
 * O        13      0.00054      0.00150     -0.00134 *
 * O        14      0.00095     -0.00361      0.00453 *
 * O        15     -0.00095     -0.00663     -0.00146 *
 * O        16     -0.00002      0.00216      0.00455 *
 * O        17      0.01141      0.01786     -0.00213 *
 * O        18     -0.01425      0.01713      0.00629 *
 * O        19      0.01085     -0.01584      0.00387 *
 * O        20     -0.01447     -0.01843     -0.00217 *
 * O        21      0.01426     -0.00630     -0.01713 *
 * O        22     -0.01141      0.00213     -0.01786 *
 * O        23      0.01447      0.00217      0.01843 *
 * O        24     -0.01085     -0.00387      0.01584 *
 * O        25     -0.00630     -0.01713      0.01426 *
 * O        26      0.00213     -0.01787     -0.01141 *
 * O        27      0.00218      0.01843      0.01448 *
 * O        28     -0.00387      0.01584     -0.01085 *
 * O        29      0.00002     -0.00455     -0.00216 *
 * O        30      0.00095      0.00146      0.00664 *
 * O        31     -0.00095     -0.00452      0.00360 *
 * O        32     -0.00054      0.00134     -0.00151 *
 * O        33      0.00664      0.00095      0.00146 *
 * O        34     -0.00150     -0.00054      0.00134 *
 * O        35     -0.00453      0.00361     -0.00095 *
 * O        36     -0.00455     -0.00216      0.00002 *
 * O        37     -0.01712      0.01426     -0.00630 *
 * O        38      0.01843      0.01447      0.00217 *
 * O        39      0.01713      0.00630     -0.01426 *
 * O        40     -0.01843     -0.00217     -0.01447 *
 * O        41      0.00151     -0.00134      0.00054 *
 * O        42     -0.00664     -0.00146     -0.00095 *
 * O        43      0.00455     -0.00002      0.00216 *
 * O        44      0.00452      0.00095     -0.00361 *
 * O        45      0.00216      0.00455     -0.00002 *
 * O        46     -0.00360      0.00452      0.00095 *
 * O        47     -0.00146     -0.00095     -0.00664 *
 * O        48     -0.00134      0.00054      0.00150 *
 * O        49      0.00146      0.00664      0.00095 *
 * O        50      0.00134     -0.00150     -0.00054 *
 * O        51      0.00361     -0.00095     -0.00452 *
 * O        52     -0.00216      0.00002     -0.00455 *
 * O        53      0.01584     -0.01084     -0.00387 *
 * O        54     -0.01787     -0.01141      0.00213 *
 * O        55     -0.01584      0.00387      0.01085 *
 * O        56      0.01786     -0.00213      0.01141 *
 * Zr        1      0.00001     -0.02393      0.02394 *
 * Zr        2     -0.00112      0.00393      0.02618 *
 * Zr        3      0.00111     -0.02619     -0.00394 *
 * Zr        4     -0.00001      0.00011     -0.00010 *
 * Zr        5     -0.00394      0.00113     -0.02620 *
 * Zr        6      0.00394      0.02619     -0.00112 *
 * Zr        7      0.00010     -0.00011      0.00001 *
 * Zr        8     -0.00010     -0.00000      0.00010 *
 * Zr        9     -0.02395      0.02394     -0.00001 *
 * Zr       10     -0.02618     -0.00394      0.00111 *
 * Zr       11      0.02621     -0.00112      0.00394 *
 * Zr       12      0.02391     -0.00001     -0.02392 *
 * Sn        1     -0.00001      0.00342     -0.00342 *
 * Sn        2      0.00001     -0.00000     -0.00000 *
 * Sn        3      0.00342     -0.00342      0.00001 *
 * Sn        4     -0.00342      0.00000      0.00342 *
 * La        1     -0.00001     -0.01422      0.01421 *
 * La        2     -0.00253      0.01892      0.01865 *
 * La        3      0.00254     -0.01864     -0.01891 *
 * La        4      0.00001      0.01881     -0.01881 *
 * La        5     -0.01891      0.00253     -0.01863 *
 * La        6      0.01891      0.01865     -0.00253 *
 * La        7      0.00001      0.00272     -0.00271 *
 * La        8     -0.00001      0.00000      0.00001 *
 * La        9      0.00271     -0.00272     -0.00001 *
 * La       10     -0.00271     -0.00000      0.00271 *
 * La       11      0.01882     -0.01881     -0.00001 *
 * La       12     -0.01882     -0.00001      0.01882 *
 * La       13     -0.01421      0.01422      0.00001 *
 * La       14     -0.01866     -0.01892      0.00253 *
 * La       15      0.01863     -0.00252      0.01891 *
 * La       16      0.01423      0.00000     -0.01423 *
 *                                                    *
 ******************************************************
 
 ***************** Stress Tensor *****************
 *                                               *
 *          Cartesian components (GPa)           *
 * --------------------------------------------- *
 *             x             y             z     *
 *                                               *
 *  x      0.000488      0.000390      0.000387  *
 *  y      0.000390      0.000487      0.000391  *
 *  z      0.000387      0.000391      0.000484  *
 *                                               *
 *  Pressure:   -0.0005                          *
 *                                               *
 *************************************************
 
 Pseudo atomic calculation performed for O 2s2 2p4
 
 Converged in 39 iterations to a total energy of -432.6554 eV
 
 
 Pseudo atomic calculation performed for Zr 4s2 4p6 4d2 5s2
 
 Converged in 38 iterations to a total energy of -1285.4931 eV
 
 
 Pseudo atomic calculation performed for Sn 4d10 5s2 5p2
 
 Converged in 48 iterations to a total energy of -2044.5414 eV
 
 
 Pseudo atomic calculation performed for La 5s2 5p6 5d1 6s2
 
 Converged in 34 iterations to a total energy of -968.0372 eV
 
Charge spilling parameter for spin component 1 = 0.22%
 
     Atomic Populations (Mulliken)
     -----------------------------
Species   Ion     s      p      d      f     Total  Charge (e)
==============================================================
  O        1     1.87   5.00   0.00   0.00   6.87    -0.87
  O        2     1.87   5.00   0.00   0.00   6.87    -0.87
  O        3     1.87   5.00   0.00   0.00   6.87    -0.87
  O        4     1.87   5.00   0.00   0.00   6.87    -0.87
  O        5     1.87   5.00   0.00   0.00   6.87    -0.87
  O        6     1.87   5.00   0.00   0.00   6.87    -0.87
  O        7     1.87   5.00   0.00   0.00   6.87    -0.87
  O        8     1.87   5.00   0.00   0.00   6.87    -0.87
  O        9     1.87   4.98   0.00   0.00   6.85    -0.85
  O       10     1.87   4.98   0.00   0.00   6.85    -0.85
  O       11     1.87   4.98   0.00   0.00   6.85    -0.85
  O       12     1.87   4.98   0.00   0.00   6.85    -0.85
  O       13     1.86   4.94   0.00   0.00   6.80    -0.80
  O       14     1.86   4.94   0.00   0.00   6.80    -0.80
  O       15     1.86   4.94   0.00   0.00   6.80    -0.80
  O       16     1.86   4.94   0.00   0.00   6.80    -0.80
  O       17     1.87   4.98   0.00   0.00   6.85    -0.85
  O       18     1.87   4.98   0.00   0.00   6.85    -0.85
  O       19     1.87   4.98   0.00   0.00   6.85    -0.85
  O       20     1.87   4.98   0.00   0.00   6.85    -0.85
  O       21     1.87   4.98   0.00   0.00   6.85    -0.85
  O       22     1.87   4.98   0.00   0.00   6.85    -0.85
  O       23     1.87   4.98   0.00   0.00   6.85    -0.85
  O       24     1.87   4.98   0.00   0.00   6.85    -0.85
  O       25     1.87   4.98   0.00   0.00   6.85    -0.85
  O       26     1.87   4.98   0.00   0.00   6.85    -0.85
  O       27     1.87   4.98   0.00   0.00   6.85    -0.85
  O       28     1.87   4.98   0.00   0.00   6.85    -0.85
  O       29     1.86   4.94   0.00   0.00   6.80    -0.80
  O       30     1.86   4.94   0.00   0.00   6.80    -0.80
  O       31     1.86   4.94   0.00   0.00   6.80    -0.80
  O       32     1.86   4.94   0.00   0.00   6.80    -0.80
  O       33     1.86   4.94   0.00   0.00   6.80    -0.80
  O       34     1.86   4.94   0.00   0.00   6.80    -0.80
  O       35     1.86   4.94   0.00   0.00   6.80    -0.80
  O       36     1.86   4.94   0.00   0.00   6.80    -0.80
  O       37     1.87   4.98   0.00   0.00   6.85    -0.85
  O       38     1.87   4.98   0.00   0.00   6.85    -0.85
  O       39     1.87   4.98   0.00   0.00   6.85    -0.85
  O       40     1.87   4.98   0.00   0.00   6.85    -0.85
  O       41     1.86   4.94   0.00   0.00   6.80    -0.80
  O       42     1.86   4.94   0.00   0.00   6.80    -0.80
  O       43     1.86   4.94   0.00   0.00   6.80    -0.80
  O       44     1.86   4.94   0.00   0.00   6.80    -0.80
  O       45     1.86   4.94   0.00   0.00   6.80    -0.80
  O       46     1.86   4.94   0.00   0.00   6.80    -0.80
  O       47     1.86   4.94   0.00   0.00   6.80    -0.80
  O       48     1.86   4.94   0.00   0.00   6.80    -0.80
  O       49     1.86   4.94   0.00   0.00   6.80    -0.80
  O       50     1.86   4.94   0.00   0.00   6.80    -0.80
  O       51     1.86   4.94   0.00   0.00   6.80    -0.80
  O       52     1.86   4.94   0.00   0.00   6.80    -0.80
  O       53     1.87   4.98   0.00   0.00   6.85    -0.85
  O       54     1.87   4.98   0.00   0.00   6.85    -0.85
  O       55     1.87   4.98   0.00   0.00   6.85    -0.85
  O       56     1.87   4.98   0.00   0.00   6.85    -0.85
  Zr       1     2.38   6.48   1.93   0.00  10.79     1.21
  Zr       2     2.38   6.48   1.93   0.00  10.79     1.21
  Zr       3     2.38   6.48   1.93   0.00  10.79     1.21
  Zr       4     2.38   6.48   1.93   0.00  10.79     1.21
  Zr       5     2.38   6.48   1.93   0.00  10.79     1.21
  Zr       6     2.38   6.48   1.93   0.00  10.79     1.21
  Zr       7     2.38   6.48   1.93   0.00  10.79     1.21
  Zr       8     2.38   6.48   1.93   0.00  10.79     1.21
  Zr       9     2.38   6.48   1.93   0.00  10.79     1.21
  Zr      10     2.38   6.48   1.93   0.00  10.79     1.21
  Zr      11     2.38   6.48   1.93   0.00  10.79     1.21
  Zr      12     2.38   6.48   1.93   0.00  10.79     1.21
  Sn       1     1.05   1.32  10.00   0.00  12.37     1.63
  Sn       2     1.05   1.32  10.00   0.00  12.37     1.63
  Sn       3     1.05   1.32  10.00   0.00  12.37     1.63
  Sn       4     1.05   1.32  10.00   0.00  12.37     1.63
  La       1     2.05   6.15   1.19   0.00   9.39     1.61
  La       2     2.05   6.15   1.19   0.00   9.39     1.61
  La       3     2.05   6.15   1.19   0.00   9.39     1.61
  La       4     2.05   6.15   1.19   0.00   9.39     1.61
  La       5     2.05   6.15   1.19   0.00   9.39     1.61
  La       6     2.05   6.15   1.19   0.00   9.39     1.61
  La       7     2.07   6.18   1.19   0.00   9.44     1.56
  La       8     2.07   6.18   1.19   0.00   9.44     1.56
  La       9     2.07   6.18   1.19   0.00   9.44     1.56
  La      10     2.07   6.18   1.19   0.00   9.44     1.56
  La      11     2.05   6.15   1.19   0.00   9.39     1.61
  La      12     2.05   6.15   1.19   0.00   9.39     1.61
  La      13     2.05   6.15   1.19   0.00   9.39     1.61
  La      14     2.05   6.15   1.19   0.00   9.39     1.61
  La      15     2.05   6.15   1.19   0.00   9.39     1.61
  La      16     2.05   6.15   1.19   0.00   9.39     1.61
==============================================================
 
            Bond              Population      Length (A)
============================================================
         O 22 -- Sn 4              0.35        2.10583
         O 17 -- Sn 3              0.35        2.10583
         O 54 -- Sn 3              0.35        2.10583
         O 56 -- Sn 4              0.35        2.10583
         O 12 -- Sn 1              0.35        2.10583
         O 26 -- Sn 1              0.35        2.10583
         O 53 -- Sn 1              0.35        2.10584
         O 10 -- Sn 3              0.35        2.10584
         O 28 -- Sn 4              0.35        2.10584
         O 55 -- Sn 1              0.35        2.10584
         O 19 -- Sn 4              0.35        2.10584
         O 24 -- Sn 3              0.35        2.10584
         O 40 -- Sn 2              0.35        2.10584
         O 23 -- Sn 2              0.35        2.10584
         O 27 -- Sn 2              0.35        2.10584
         O 9  -- Sn 2              0.35        2.10584
         O 20 -- Sn 2              0.35        2.10584
         O 38 -- Sn 2              0.35        2.10584
         O 18 -- Sn 1              0.34        2.10587
         O 25 -- Sn 3              0.34        2.10587
         O 11 -- Sn 4              0.34        2.10587
         O 21 -- Sn 1              0.34        2.10587
         O 37 -- Sn 4              0.34        2.10587
         O 39 -- Sn 3              0.34        2.10587
         O 51 -- Zr 2              0.43        2.11702
         O 44 -- Zr 10             0.43        2.11702
         O 46 -- Zr 3              0.43        2.11702
         O 35 -- Zr 11             0.43        2.11702
         O 31 -- Zr 6              0.43        2.11702
         O 14 -- Zr 5              0.43        2.11702
         O 13 -- Zr 8              0.43        2.11776
         O 50 -- Zr 8              0.43        2.11776
         O 32 -- Zr 7              0.43        2.11776
         O 41 -- Zr 4              0.43        2.11776
         O 34 -- Zr 4              0.43        2.11776
         O 48 -- Zr 7              0.43        2.11776
         O 16 -- Zr 12             0.43        2.11777
         O 36 -- Zr 12             0.43        2.11777
         O 45 -- Zr 1              0.43        2.11777
         O 29 -- Zr 9              0.43        2.11777
         O 52 -- Zr 1              0.43        2.11777
         O 43 -- Zr 9              0.43        2.11777
         O 42 -- Zr 2              0.43        2.11861
         O 30 -- Zr 10             0.43        2.11861
         O 33 -- Zr 3              0.43        2.11861
         O 47 -- Zr 6              0.43        2.11861
         O 49 -- Zr 5              0.43        2.11861
         O 15 -- Zr 11             0.43        2.11861
         O 11 -- Zr 7              0.45        2.11920
         O 37 -- Zr 4              0.45        2.11920
         O 25 -- Zr 8              0.45        2.11920
         O 39 -- Zr 4              0.45        2.11920
         O 21 -- Zr 7              0.45        2.11920
         O 18 -- Zr 8              0.45        2.11920
         O 50 -- Zr 1              0.43        2.11962
         O 13 -- Zr 9              0.43        2.11962
         O 48 -- Zr 1              0.43        2.11962
         O 32 -- Zr 12             0.43        2.11962
         O 41 -- Zr 12             0.43        2.11962
         O 34 -- Zr 9              0.43        2.11962
         O 40 -- Zr 3              0.45        2.11964
         O 23 -- Zr 6              0.45        2.11964
         O 27 -- Zr 11             0.45        2.11964
         O 9  -- Zr 10             0.45        2.11964
         O 38 -- Zr 2              0.45        2.11964
         O 20 -- Zr 5              0.45        2.11964
         O 19 -- Zr 11             0.45        2.11995
         O 28 -- Zr 5              0.45        2.11995
         O 24 -- Zr 10             0.45        2.11995
         O 10 -- Zr 6              0.45        2.11995
         O 53 -- Zr 3              0.45        2.11995
         O 55 -- Zr 2              0.45        2.11995
         O 31 -- Zr 11             0.43        2.12035
         O 46 -- Zr 5              0.43        2.12035
         O 14 -- Zr 10             0.43        2.12035
         O 51 -- Zr 6              0.43        2.12035
         O 35 -- Zr 2              0.43        2.12035
         O 44 -- Zr 3              0.43        2.12035
         O 16 -- Zr 6              0.43        2.12057
         O 29 -- Zr 5              0.43        2.12057
         O 36 -- Zr 3              0.43        2.12057
         O 43 -- Zr 2              0.43        2.12057
         O 52 -- Zr 10             0.43        2.12057
         O 45 -- Zr 11             0.43        2.12057
         O 56 -- Zr 1              0.45        2.12061
         O 22 -- Zr 9              0.45        2.12061
         O 54 -- Zr 1              0.45        2.12061
         O 12 -- Zr 9              0.45        2.12061
         O 26 -- Zr 12             0.45        2.12061
         O 17 -- Zr 12             0.45        2.12061
         O 33 -- Zr 7              0.43        2.12113
         O 47 -- Zr 4              0.43        2.12113
         O 42 -- Zr 8              0.43        2.12113
         O 30 -- Zr 8              0.43        2.12113
         O 49 -- Zr 4              0.43        2.12113
         O 15 -- Zr 7              0.43        2.12113
         O 8  -- La 10             0.17        2.36209
         O 1  -- La 10             0.17        2.36209
         O 4  -- La 9              0.17        2.36209
         O 6  -- La 9              0.17        2.36209
         O 7  -- La 7              0.17        2.36209
         O 2  -- La 7              0.17        2.36209
         O 3  -- La 8              0.17        2.36222
         O 5  -- La 8              0.17        2.36222
         O 4  -- La 6              0.18        2.36241
         O 7  -- La 3              0.18        2.36241
         O 8  -- La 5              0.18        2.36241
         O 2  -- La 2              0.18        2.36241
         O 6  -- La 14             0.18        2.36241
         O 1  -- La 15             0.18        2.36241
         O 6  -- La 12             0.18        2.36242
         O 2  -- La 12             0.18        2.36242
         O 7  -- La 11             0.18        2.36242
         O 1  -- La 11             0.18        2.36242
         O 4  -- La 4              0.18        2.36242
         O 8  -- La 4              0.18        2.36242
         O 3  -- La 3              0.18        2.36243
         O 5  -- La 6              0.18        2.36243
         O 5  -- La 2              0.18        2.36243
         O 3  -- La 5              0.18        2.36243
         O 5  -- La 15             0.18        2.36243
         O 3  -- La 14             0.18        2.36243
         O 4  -- La 16             0.18        2.36256
         O 8  -- La 13             0.18        2.36256
         O 6  -- La 1              0.18        2.36256
         O 1  -- La 1              0.18        2.36256
         O 7  -- La 16             0.18        2.36256
         O 2  -- La 13             0.18        2.36256
         O 31 -- La 5              0.12        2.66974
         O 44 -- La 2              0.12        2.66974
         O 51 -- La 14             0.12        2.66974
         O 46 -- La 15             0.12        2.66974
         O 14 -- La 6              0.12        2.66974
         O 35 -- La 3              0.12        2.66974
         O 49 -- La 1              0.13        2.66978
         O 15 -- La 13             0.13        2.66978
         O 47 -- La 1              0.13        2.66978
         O 33 -- La 13             0.13        2.66978
         O 30 -- La 16             0.13        2.66978
         O 42 -- La 16             0.13        2.66978
         O 34 -- La 11             0.12        2.66988
         O 48 -- La 4              0.12        2.66988
         O 41 -- La 12             0.12        2.66988
         O 50 -- La 4              0.12        2.66988
         O 13 -- La 11             0.12        2.66988
         O 32 -- La 12             0.12        2.66988
         O 29 -- La 15             0.13        2.66988
         O 45 -- La 5              0.13        2.66988
         O 16 -- La 14             0.13        2.66988
         O 43 -- La 3              0.13        2.66988
         O 36 -- La 2              0.13        2.66988
         O 52 -- La 6              0.13        2.66988
         O 47 -- La 11             0.13        2.67043
         O 42 -- La 4              0.13        2.67043
         O 33 -- La 4              0.13        2.67043
         O 30 -- La 11             0.13        2.67043
         O 49 -- La 12             0.13        2.67043
         O 15 -- La 12             0.13        2.67043
         O 35 -- La 16             0.13        2.67045
         O 14 -- La 16             0.13        2.67045
         O 31 -- La 13             0.13        2.67045
         O 44 -- La 13             0.13        2.67045
         O 46 -- La 1              0.13        2.67045
         O 51 -- La 1              0.13        2.67045
         O 43 -- La 14             0.13        2.67053
         O 52 -- La 2              0.13        2.67053
         O 36 -- La 15             0.13        2.67053
         O 16 -- La 5              0.13        2.67053
         O 29 -- La 6              0.13        2.67053
         O 45 -- La 3              0.13        2.67053
         O 41 -- La 2              0.13        2.67053
         O 32 -- La 14             0.13        2.67053
         O 34 -- La 3              0.13        2.67053
         O 13 -- La 15             0.13        2.67053
         O 50 -- La 5              0.13        2.67053
         O 48 -- La 6              0.13        2.67053
         O 19 -- La 9              0.18        2.67815
         O 24 -- La 10             0.18        2.67815
         O 10 -- La 7              0.18        2.67815
         O 28 -- La 7              0.18        2.67815
         O 53 -- La 9              0.18        2.67815
         O 55 -- La 10             0.18        2.67815
         O 39 -- La 8              0.18        2.67817
         O 21 -- La 8              0.18        2.67817
         O 37 -- La 8              0.18        2.67817
         O 11 -- La 8              0.18        2.67817
         O 25 -- La 8              0.18        2.67817
         O 18 -- La 8              0.18        2.67817
         O 12 -- La 9              0.18        2.67820
         O 54 -- La 7              0.18        2.67820
         O 26 -- La 10             0.18        2.67820
         O 56 -- La 7              0.18        2.67820
         O 22 -- La 9              0.18        2.67820
         O 17 -- La 10             0.18        2.67820
         O 20 -- La 7              0.18        2.67821
         O 27 -- La 9              0.18        2.67821
         O 23 -- La 7              0.18        2.67821
         O 38 -- La 10             0.18        2.67821
         O 40 -- La 9              0.18        2.67821
         O 9  -- La 10             0.18        2.67821
         O 37 -- La 2              0.18        2.69402
         O 39 -- La 3              0.18        2.69402
         O 11 -- La 14             0.18        2.69402
         O 25 -- La 15             0.18        2.69402
         O 21 -- La 6              0.18        2.69402
         O 18 -- La 5              0.18        2.69402
         O 26 -- La 5              0.18        2.69406
         O 17 -- La 15             0.18        2.69406
         O 12 -- La 6              0.18        2.69406
         O 22 -- La 14             0.18        2.69406
         O 56 -- La 2              0.18        2.69406
         O 54 -- La 3              0.18        2.69406
         O 38 -- La 4              0.18        2.69407
         O 9  -- La 11             0.18        2.69407
         O 40 -- La 4              0.18        2.69407
         O 23 -- La 11             0.18        2.69407
         O 20 -- La 12             0.18        2.69407
         O 27 -- La 12             0.18        2.69407
         O 24 -- La 13             0.18        2.69408
         O 55 -- La 1              0.18        2.69408
         O 19 -- La 16             0.18        2.69408
         O 10 -- La 13             0.18        2.69408
         O 53 -- La 1              0.18        2.69408
         O 28 -- La 16             0.18        2.69408
         O 18 -- O 21             -0.06        2.79795
         O 25 -- O 39             -0.06        2.79795
         O 11 -- O 37             -0.06        2.79795
         O 27 -- O 40             -0.06        2.79798
         O 20 -- O 23             -0.06        2.79798
         O 9  -- O 38             -0.06        2.79798
         O 28 -- O 56             -0.06        2.79799
         O 19 -- O 22             -0.06        2.79799
         O 17 -- O 24             -0.06        2.79799
         O 26 -- O 55             -0.06        2.79799
         O 10 -- O 54             -0.06        2.79799
         O 12 -- O 53             -0.06        2.79799
         O 11 -- O 22             -0.06        2.81318
         O 37 -- O 56             -0.06        2.81318
         O 39 -- O 54             -0.06        2.81318
         O 17 -- O 25             -0.06        2.81318
         O 12 -- O 21             -0.06        2.81318
         O 18 -- O 26             -0.06        2.81318
         O 9  -- O 23             -0.06        2.81322
         O 38 -- O 40             -0.06        2.81322
         O 20 -- O 27             -0.06        2.81322
         O 53 -- O 55             -0.06        2.81324
         O 10 -- O 24             -0.06        2.81324
         O 19 -- O 28             -0.06        2.81324
         O 36 -- O 46             -0.03        2.81337
         O 16 -- O 31             -0.03        2.81337
         O 14 -- O 29             -0.03        2.81337
         O 35 -- O 45             -0.03        2.81337
         O 43 -- O 51             -0.03        2.81337
         O 44 -- O 52             -0.03        2.81337
         O 46 -- O 49             -0.03        2.81338
         O 35 -- O 42             -0.03        2.81338
         O 47 -- O 51             -0.03        2.81338
         O 14 -- O 30             -0.03        2.81338
         O 15 -- O 31             -0.03        2.81338
         O 33 -- O 44             -0.03        2.81338
         O 42 -- O 50             -0.03        2.81338
         O 13 -- O 30             -0.03        2.81338
         O 15 -- O 32             -0.03        2.81338
         O 41 -- O 49             -0.03        2.81338
         O 33 -- O 48             -0.03        2.81338
         O 34 -- O 47             -0.03        2.81338
         O 36 -- O 41             -0.03        2.81340
         O 45 -- O 50             -0.03        2.81340
         O 16 -- O 32             -0.03        2.81340
         O 13 -- O 29             -0.03        2.81340
         O 48 -- O 52             -0.03        2.81340
         O 34 -- O 43             -0.03        2.81340
         O 16 -- O 51             -0.03        2.81956
         O 36 -- O 44             -0.03        2.81956
         O 35 -- O 43             -0.03        2.81956
         O 14 -- O 52             -0.03        2.81956
         O 29 -- O 46             -0.03        2.81956
         O 31 -- O 45             -0.03        2.81956
         O 15 -- O 33             -0.03        2.81960
         O 47 -- O 49             -0.03        2.81960
         O 30 -- O 42             -0.03        2.81960
         O 48 -- O 50             -0.03        2.81961
         O 13 -- O 34             -0.03        2.81961
         O 32 -- O 41             -0.03        2.81961
         O 33 -- O 40             -0.03        2.82297
         O 23 -- O 47             -0.03        2.82297
         O 20 -- O 49             -0.03        2.82297
         O 38 -- O 42             -0.03        2.82297
         O 15 -- O 27             -0.03        2.82297
         O 9  -- O 30             -0.03        2.82297
         O 16 -- O 26             -0.03        2.82300
         O 52 -- O 56             -0.03        2.82300
         O 22 -- O 43             -0.03        2.82300
         O 17 -- O 36             -0.03        2.82300
         O 12 -- O 29             -0.03        2.82300
         O 45 -- O 54             -0.03        2.82300
         O 13 -- O 25             -0.03        2.82300
         O 18 -- O 50             -0.03        2.82300
         O 34 -- O 39             -0.03        2.82300
         O 21 -- O 48             -0.03        2.82300
         O 37 -- O 41             -0.03        2.82300
         O 11 -- O 32             -0.03        2.82300
         O 24 -- O 44             -0.03        2.82300
         O 19 -- O 35             -0.03        2.82300
         O 51 -- O 55             -0.03        2.82300
         O 14 -- O 28             -0.03        2.82300
         O 10 -- O 31             -0.03        2.82300
         O 46 -- O 53             -0.03        2.82300
         O 10 -- O 23             -0.03        2.82358
         O 40 -- O 53             -0.03        2.82358
         O 9  -- O 24             -0.03        2.82358
         O 38 -- O 55             -0.03        2.82358
         O 20 -- O 28             -0.03        2.82358
         O 19 -- O 27             -0.03        2.82358
         O 12 -- O 22             -0.03        2.82362
         O 54 -- O 56             -0.03        2.82362
         O 17 -- O 26             -0.03        2.82362
         O 37 -- O 39             -0.03        2.82364
         O 11 -- O 21             -0.03        2.82364
         O 18 -- O 25             -0.03        2.82364
============================================================
 

Writing analysis data to 19.castep_bin

Writing model to 19.check
 
 A BibTeX formatted list of references used in this run has been written to 
 19.bib
 
Initialisation time =     53.68 s
Calculation time    =  32391.56 s
Finalisation time   =     41.55 s
Total time          =  32486.79 s
Peak Memory Use     = 2839464 kB
  
Overall parallel efficiency rating: Good (78%)                                  
  
Data was distributed by:-
G-vector (4-way); efficiency rating: Good (79%)                                 
k-point (14-way); efficiency rating: Excellent (98%)                            
