 +-------------------------------------------------+
 |                                                 |
 |      CCC   AA    SSS  TTTTT  EEEEE  PPPP        |
 |     C     A  A  S       T    E      P   P       |
 |     C     AAAA   SS     T    EEE    PPPP        |
 |     C     A  A     S    T    E      P           |
 |      CCC  A  A  SSS     T    EEEEE  P           |
 |                                                 |
 +-------------------------------------------------+
 |                                                 |
 | Welcome to Academic Release CASTEP version 16.1 |          
 | Ab Initio Total Energy Program                  |
 |                                                 |
 | Authors:                                        |
 | M. Segall, M. Probert, C. Pickard, P. Hasnip,   |
 | S. Clark, K. Refson, J. R. Yates, M. Payne      |
 |                                                 |
 | Contributors:                                   |
 | P. Lindan, P. Haynes, J. White, V. Milman,      |
 | N. Govind, M. Gibson, P. Tulip, V. Cocula,      |
 | B. Montanari, D. Quigley, M. Glover,            |
 | L. Bernasconi, A. Perlov, M. Plummer,           |
 | E. McNellis, J. Meyer, J. Gale, D. Jochym       |
 | J. Aarons, B. Walker, R. Gillen, D. Jones       |
 | T. Green, I. J. Bush, C. J. Armstrong,          |
 | E. J. Higgins, E. L. Brown, M. S. McFly         |
 |                                                 |
 | Copyright (c) 2000 - 2015                       |
 |                                                 |
 |     Distributed under the terms of an           |
 |     Agreement between the United Kingdom        |
 |     Car-Parrinello (UKCP) Consortium,           |
 |     Daresbury Laboratory and Accelrys, Inc.     |
 |                                                 |
 | Please cite                                     |
 |                                                 |
 |     "First principles methods using CASTEP"     |
 |                                                 |
 |         Zeitschrift fuer Kristallographie       |
 |           220(5-6) pp. 567-570 (2005)           |
 |                                                 |
 | S. J. Clark, M. D. Segall, C. J. Pickard,       |
 | P. J. Hasnip, M. J. Probert, K. Refson,         |
 | M. C. Payne                                     |
 |                                                 |
 |       in all publications arising from          |
 |              your use of CASTEP                 |
 |                                                 |
 +-------------------------------------------------+
 
 
 Compiled for linux_x86_64_cray-XT on Tue, 22 Mar 2022 15:42:52 +0000
 from code version b833c1ffcd7d+  Fri, 13 Jun 2014 17:24:31 +0100
 Compiler: Cray Fortran 11.0.4; Optimisation: intermediate
 MATHLIBS: LibSci (LAPACK version 3.6.1)
 FFT Lib : default
 Fundamental constants values: CODATA 2010
 
 Run started: Wed, 30 Mar 2022 06:35:18 -0100
 +-------------------------------------------------+
 |                                                 |
 |           N   N    M   M    RRRR                |
 |           NN  N    MM MM    R   R               |
 |           N N N    M M M    RRRR                |
 |           N  NN    M   M    R  R                |
 |           N   N    M   M    R   R               |
 |                                                 |
 +-------------------------------------------------+
 |                                                 |
 | Welcome to Materials Studio CASTEP-NMR          |
 |                                                 |
 | Authors:                                        |
 | J.R. Yates, C.J. Pickard, F. Mauri              |
 |                                                 |
 | Contributors:                                   |
 | T.F.G. Green, S.A. Joyce                        |
 |                                                 |
 | Copyright (c) 2004 - 2015                       |
 |                                                 |
 | Please cite the appropriate publications in all |
 | work arising from your use of CASTEP NMR.       |
 |                                                 |
 | For NMR Shielding Tensors cite:                 |
 |    "All-electron magnetic response with         |
 |    pseudopotentials: NMR chemical shifts",      |
 |    C. J. Pickard, F. Mauri;                     |
 |    Physical Review B63 245101 (2001), and       |
 |                                                 |
 |    "Calculation of NMR Chemical Shifts          |
 |    for extended systems using                   |
 |    Ultrasoft Pseudopotentials",                 |
 |    J. R. Yates, C. J. Pickard and F. Mauri      |
 |    Physical Review B76 024401 (2007)            |
 |                                                 |
 | For Electric Field Gradients cite:              |
 |   "Accurate First Principles Prediction of 17O  |
 |    NMR Parameters in SiO2: Assignment of the    |
 |    Zeolite Ferrierite Spectrum"                 |
 |    M. Profeta, F. Mauri and C. J. Pickard       |
 |    J. Amer. Chem. Soc. 125 541 (2003)           |
 |                                                 |
 | For Spin-Spin (J) Couplings cite:               |
 |   "A first principles theory of NMR J-coupling  |
 |   in solid-state systems"                       |
 |   S.A. Joyce, J.R. Yates, C.J. Pickard, F. Mauri|
 |   J. Chem. Phys. 127 204107 (2007)              |
 |                                                 |
 |   "Relativistic NMR J-coupling with ultrasoft   |
 |   pseudopotentials and the zeroth-order regular |
 |   approximation"                                |
 |   T.F.G. Green and J.R. Yates                   |
 |   J. Chem. Phys. 140 234106 (2014)              |
 |                                                 |
 +-------------------------------------------------+
 
 
 Atomic calculation performed for O: 1s2 2s2 2p4
 
 Converged in 44 iterations to an ae energy of -2040.855 eV
 
 
 Atomic calculation performed for O: 1s2 2s2 2p4
 
 Exceeded max iterations: converged to 0.000000062 eV
 
   ============================================================                
   | Pseudopotential Report - Date of generation 30-03-2022   |                
   ------------------------------------------------------------                
   | Element: O Ionic charge:  6.00 Level of theory: PBE      |                
   | Atomic Solver: ZORA (scalar)                             |                
   |                                                          |                
   |               Reference Electronic Structure             |                
   |         Orbital         Occupation         Energy        |                
   |            2s              2.000           -0.881        |                
   |            2p              4.000           -0.332        |                
   |                                                          |                
   |                 Pseudopotential Definition               |                
   |        Beta     l      e      Rc     scheme   norm       |                
   |          1      0   -0.881   1.100     qc      0         |                
   |          2      0    0.250   1.100     qc      0         |                
   |          3      1   -0.332   1.100     qc      0         |                
   |          4      1    0.250   1.100     qc      0         |                
   |         loc     2    0.000   1.100     pn      0         |                
   |                                                          |                
   | Augmentation charge Rinner = 0.769                       |                
   | Partial core correction Rc = 0.769                       |                
   ------------------------------------------------------------                
   | "2|1.1|15|18|20|20:21(qc=7)"                             |                
   ------------------------------------------------------------                
   |      Author: Chris J. Pickard, Cambridge University      |                
   ============================================================                
 
 Atomic calculation performed for Zr: 1s2 2s2 2p6 3s2 3p6 3d10 4s2 4p6 4d2 5s2
 
 Converged in 52 iterations to an ae energy of -97719.888 eV
 
 
 Atomic calculation performed for Zr: 1s2 2s2 2p6 3s2 3p6 3d10 4s2 4p6 4d2 5s2
 
 Exceeded max iterations: converged to 0.000000936 eV
 
 Warning: ion_atom_descreen_psp: negative charge density encountered
   ============================================================                
   | Pseudopotential Report - Date of generation 30-03-2022   |                
   ------------------------------------------------------------                
   | Element: Zr Ionic charge: 12.00 Level of theory: PBE     |                
   | Atomic Solver: ZORA (scalar)                             |                
   |                                                          |                
   |               Reference Electronic Structure             |                
   |         Orbital         Occupation         Energy        |                
   |            4s              2.000           -2.003        |                
   |            4p              6.000           -1.193        |                
   |            5s              2.000           -0.163        |                
   |            4d              2.000           -0.132        |                
   |                                                          |                
   |                 Pseudopotential Definition               |                
   |        Beta     l      e      Rc     scheme   norm       |                
   |          1      0   -2.003   2.105     qc      0         |                
   |          2      0   -0.163   2.105     qc      0         |                
   |          3      0    0.250   2.105     qc      0         |                
   |          4      1   -1.193   2.105     qc      0         |                
   |          5      1    0.250   2.105     qc      0         |                
   |          6      2   -0.132   2.105     qc      0         |                
   |          7      2    0.250   2.105     qc      0         |                
   |         loc     3    0.000   2.105     pn      0         |                
   |                                                          |                
   | Augmentation charge Rinner = 1.471                       |                
   | Partial core correction Rc = 1.471                       |                
   ------------------------------------------------------------                
   | "3|2.1|7|8|9|40U:50:41:42"                               |                
   ------------------------------------------------------------                
   |      Author: Chris J. Pickard, Cambridge University      |                
   ============================================================                
 
 Atomic calculation performed for Sn:
 1s2 2s2 2p6 3s2 3p6 3d10 4s2 4p6 4d10 5s2 5p2
 
 Converged in 58 iterations to an ae energy of -167539.320 eV
 
 
 Atomic calculation performed for Sn:
 1s2 2s2 2p6 3s2 3p6 3d10 4s2 4p6 4d10 5s2 5p2
 
 Exceeded max iterations: converged to -0.000000491 eV
 
   ============================================================                
   | Pseudopotential Report - Date of generation 30-03-2022   |                
   ------------------------------------------------------------                
   | Element: Sn Ionic charge: 14.00 Level of theory: PBE     |                
   | Atomic Solver: ZORA (scalar)                             |                
   |                                                          |                
   |               Reference Electronic Structure             |                
   |         Orbital         Occupation         Energy        |                
   |            4d             10.000           -0.950        |                
   |            5s              2.000           -0.388        |                
   |            5p              2.000           -0.136        |                
   |                                                          |                
   |                 Pseudopotential Definition               |                
   |        Beta     l      e      Rc     scheme   norm       |                
   |          1      0   -0.388   2.199     qc      0         |                
   |          2      0    0.250   2.199     qc      0         |                
   |          3      1   -0.136   2.199     qc      0         |                
   |          4      1    0.250   2.199     qc      0         |                
   |          5      2   -0.950   2.199     qc      0         |                
   |          6      2    0.250   2.199     qc      0         |                
   |         loc     3    0.000   2.199     pn      0         |                
   |                                                          |                
   | Augmentation charge Rinner = 1.537                       |                
   | Partial core correction Rc = 1.537                       |                
   ------------------------------------------------------------                
   | "3|2.2|7|8|9|50:51:42"                                   |                
   ------------------------------------------------------------                
   |      Author: Chris J. Pickard, Cambridge University      |                
   ============================================================                
 
 Atomic calculation performed for La:
 1s2 2s2 2p6 3s2 3p6 3d10 4s2 4p6 4d10 5s2 5p6 5d1 6s2
 
 Converged in 55 iterations to an ae energy of -230121.495 eV
 
 
 Atomic calculation performed for La:
 1s2 2s2 2p6 3s2 3p6 3d10 4s2 4p6 4d10 5s2 5p6 5d1 6s2
 
 Exceeded max iterations: converged to 0.000001134 eV
 
 Warning: ion_atom_descreen_psp: negative charge density encountered
   ============================================================                
   | Pseudopotential Report - Date of generation 30-03-2022   |                
   ------------------------------------------------------------                
   | Element: La Ionic charge: 11.00 Level of theory: PBE     |                
   | Atomic Solver: ZORA (scalar)                             |                
   |                                                          |                
   |               Reference Electronic Structure             |                
   |         Orbital         Occupation         Energy        |                
   |            5s              2.000           -1.430        |                
   |            5p              6.000           -0.823        |                
   |            6s              2.000           -0.135        |                
   |            5d              1.000           -0.114        |                
   |                                                          |                
   |                 Pseudopotential Definition               |                
   |        Beta     l      e      Rc     scheme   norm       |                
   |          1      0   -1.430   2.298     qc      0         |                
   |          2      0   -0.135   2.298     qc      0         |                
   |          3      0    0.250   2.298     qc      0         |                
   |          4      1   -0.823   2.298     qc      0         |                
   |          5      1    0.250   2.298     qc      0         |                
   |          6      2   -0.114   2.298     qc      0         |                
   |          7      2    0.250   2.298     qc      0         |                
   |         loc     2    0.000   2.298     pn      0         |                
   |                                                          |                
   | Augmentation charge Rinner = 1.606                       |                
   | Partial core correction Rc = 1.606                       |                
   ------------------------------------------------------------                
   | "2|2.3|5|6|7|50U:60:51:52(qc=4.5)"                       |                
   ------------------------------------------------------------                
   |      Author: Chris J. Pickard, Cambridge University      |                
   ============================================================                
 
 Pseudo atomic calculation performed for O 2s2 2p4
 
 Converged in 39 iterations to a total energy of -432.6554 eV
 
 
 Pseudo atomic calculation performed for Zr 4s2 4p6 4d2 5s2
 
 Converged in 38 iterations to a total energy of -1285.4931 eV
 
 
 Pseudo atomic calculation performed for Sn 4d10 5s2 5p2
 
 Converged in 48 iterations to a total energy of -2044.5413 eV
 
 
 Pseudo atomic calculation performed for La 5s2 5p6 5d1 6s2
 
 Converged in 34 iterations to a total energy of -968.0373 eV
 
 Calculation parallelised over 896 processes.
 Data is distributed by G-vector(64-way) and k-point(14-way)

 ************************************ Title ************************************
 nmr testing

 ***************************** General Parameters ******************************
  
 output verbosity                               : normal  (1)
 write checkpoint data to                       : 19.check
 type of calculation                            : Magnetic Resonance
 stress calculation                             : on
 density difference calculation                 : off
 electron localisation func (ELF) calculation   : off
 Hirshfeld analysis                             : off
 unlimited duration calculation
 timing information                             : on
 memory usage estimate                          : on
 write final potential to formatted file        : off
 write final density to formatted file          : off
 write BibTeX reference list                    : off
 write OTFG pseudopotential files               : on
 checkpoint writing                             : off
  
 output         length unit                     : A
 output           mass unit                     : amu
 output           time unit                     : ps
 output         charge unit                     : e
 output           spin unit                     : hbar/2
 output         energy unit                     : eV
 output          force unit                     : eV/A
 output       velocity unit                     : A/ps
 output       pressure unit                     : GPa
 output     inv_length unit                     : 1/A
 output      frequency unit                     : cm-1
 output force constant unit                     : eV/A**2
 output         volume unit                     : A**3
 output   IR intensity unit                     : (D/A)**2/amu
 output         dipole unit                     : D
 output         efield unit                     : eV/A/e
 output        entropy unit                     : J/mol/K
  
 wavefunctions paging                           : none
 random number generator seed                   : randomised (63518918)
 data distribution                              : optimal for this architecture
 optimization strategy                          : maximize speed(+++)

 *********************** Exchange-Correlation Parameters ***********************
  
 using functional                               : Perdew Burke Ernzerhof
 relativistic treatment                         : ZORA
 DFT+D: Semi-empirical dispersion correction    : off

 ************************* Pseudopotential Parameters **************************
  
 pseudopotential representation                 : reciprocal space
 <beta|phi> representation                      : reciprocal space
 spin-orbit coupling                            : off

 **************************** Basis Set Parameters *****************************
  
 plane wave basis set cut-off                   :   816.3416   eV
 size of standard grid                          :     1.7500
 size of   fine   gmax                          :    25.6161   1/A
 finite basis set correction                    : automatic
 number of sample energies                      :          3
           sample  spacing                      :     5.0000   eV

 **************************** Electronic Parameters ****************************
  
 number of  electrons                           :  726.0    
 net charge of system                           :  0.000    
 treating system as non-spin-polarized
 number of bands                                :        436

 ********************* Electronic Minimization Parameters **********************
  
 Method: Treating system as metallic with density mixing treatment of electrons,
         and number of  SD  steps               :          1
         and number of  CG  steps               :          4
  
 total energy / atom convergence tol.           : 0.1000E-08   eV
 eigen-energy convergence tolerance             : 0.2424E-09   eV
 max force / atom convergence tol.              : ignored
 convergence tolerance window                   :          3   cycles
 max. number of SCF cycles                      :        250
 number of fixed-spin iterations                :         10
 smearing scheme                                : Gaussian
 smearing width                                 : 0.2000       eV
 Fermi energy convergence tolerance             : 0.2721E-13   eV
 periodic dipole correction                     : NONE

 ************************** Density Mixing Parameters **************************
  
 density-mixing scheme                          : Broyden
 max. length of mixing history                  :         20
 charge density mixing amplitude                : 0.8000    
 cut-off energy for mixing                      :  816.3       eV

 *********************** Population Analysis Parameters ************************
  
 Population analysis with cutoff                :  3.000       A

 ************************ Magnetic Resonance Parameters ************************
  
 Magnetic Resonance Property                    : Chemical Shielding + EFG
 Position Operator Method                       : crystal
 max. number of MagRes CG steps                 :        250
 convergence tolerance window                   :          2   cycles
 energy convergence tolerance                   : 0.1000E-11   eV
 band convergence tolerance                     : 0.1000E-08   eV

 *******************************************************************************
  
 
                           -------------------------------
                                      Unit Cell
                           -------------------------------
        Real Lattice(A)                      Reciprocal Lattice(1/A)
  10.8921037   0.0081146  -0.0024352        0.5768573  -0.0004285   0.0001288
   0.0080907  10.8915204  -0.0000635       -0.0004298   0.5768881   0.0000039
  -0.0024312  -0.0000746  10.8922430        0.0001290   0.0000033   0.5768496
 
                       Lattice parameters(A)       Cell Angles
                    a =   10.892107          alpha =   90.000736
                    b =   10.891523          beta  =   90.025599
                    c =   10.892243          gamma =   89.914753
 
                       Current cell volume = 1292.163105       A**3
 
                           -------------------------------
                                     Cell Contents
                           -------------------------------
                         Total number of ions in cell =   88
                      Total number of species in cell =    4
                        Max number of any one species =   56
 
            xxxxxxxxxxxxxxxxxxxxxxxxxxxxxxxxxxxxxxxxxxxxxxxxxxxxxxxxxxxx
            x  Element    Atom        Fractional coordinates of atoms  x
            x            Number           u          v          w      x
            x----------------------------------------------------------x
            x  O            1         0.125128   0.124901   0.124824   x 
            x  O            2         0.624886   0.125191   0.625020   x 
            x  O            3         0.125188   0.625018   0.625035   x 
            x  O            4         0.624749   0.624887   0.124959   x 
            x  O            5         0.874652   0.374885   0.374929   x 
            x  O            6         0.874986   0.875117   0.875224   x 
            x  O            7         0.375236   0.374923   0.875185   x 
            x  O            8         0.375111   0.874946   0.374769   x 
            x  O            9         0.420410   0.125390   0.124639   x 
            x  O           10         0.330468   0.124676   0.624860   x 
            x  O           11         0.830217   0.625020   0.624775   x 
            x  O           12         0.919493   0.625491   0.124827   x 
            x  O           13         0.125016   0.419708   0.124710   x 
            x  O           14         0.624681   0.329822   0.124502   x 
            x  O           15         0.624907   0.830388   0.624279   x 
            x  O           16         0.124979   0.919615   0.624332   x 
            x  O           17         0.124508   0.124935   0.419306   x 
            x  O           18         0.124530   0.625161   0.330089   x 
            x  O           19         0.625313   0.624863   0.830262   x 
            x  O           20         0.624963   0.125281   0.920403   x 
            x  O           21         0.875243   0.669441   0.375050   x 
            x  O           22         0.874460   0.580245   0.875376   x 
            x  O           23         0.373808   0.079457   0.873948   x 
            x  O           24         0.374192   0.170678   0.376424   x 
            x  O           25         0.169933   0.374818   0.375064   x 
            x  O           26         0.080629   0.875001   0.375433   x 
            x  O           27         0.579274   0.873585   0.874336   x 
            x  O           28         0.670197   0.376169   0.874490   x 
            x  O           29         0.876148   0.375791   0.079634   x 
            x  O           30         0.373826   0.375801   0.170569   x 
            x  O           31         0.375135   0.875490   0.669941   x 
            x  O           32         0.875015   0.875116   0.580656   x 
            x  O           33         0.669544   0.874791   0.375587   x 
            x  O           34         0.080497   0.374376   0.875284   x 
            x  O           35         0.376239   0.670425   0.874746   x 
            x  O           36         0.875567   0.080378   0.375629   x 
            x  O           37         0.875302   0.374874   0.669792   x 
            x  O           38         0.375127   0.874495   0.079707   x 
            x  O           39         0.124605   0.330425   0.624972   x 
            x  O           40         0.626339   0.920793   0.125895   x 
            x  O           41         0.919346   0.125080   0.624490   x 
            x  O           42         0.329775   0.624223   0.125189   x 
            x  O           43         0.124190   0.624065   0.920473   x 
            x  O           44         0.625884   0.123593   0.329053   x 
            x  O           45         0.420534   0.625942   0.625369   x 
            x  O           46         0.829097   0.123975   0.126042   x 
            x  O           47         0.125066   0.125603   0.830434   x 
            x  O           48         0.625633   0.626162   0.420132   x 
            x  O           49         0.876260   0.170433   0.874264   x 
            x  O           50         0.374082   0.579351   0.374356   x 
            x  O           51         0.170647   0.876114   0.874118   x 
            x  O           52         0.579640   0.374955   0.375441   x 
            x  O           53         0.875069   0.874330   0.169680   x 
            x  O           54         0.374206   0.373911   0.579568   x 
            x  O           55         0.123879   0.829735   0.125749   x 
            x  O           56         0.625737   0.420291   0.625744   x 
            x  Zr           1         0.500123   0.500065   0.500087   x 
            x  Zr           2         0.250006   0.749810   0.000192   x 
            x  Zr           3         0.750647   0.250660  -0.000330   x 
            x  Zr           4         0.499845  -0.000214  -0.000137   x 
            x  Zr           5         0.499695   0.250297   0.250429   x 
            x  Sn           1         0.751540  -0.001611   0.251636   x 
            x  Sn           2         0.000445   0.249603   0.749588   x 
            x  Sn           3         0.249182   0.001030   0.748959   x 
            x  Sn           4        -0.000459   0.750392   0.250447   x 
            x  Sn           5         0.248905   0.248980   0.500867   x 
            x  Sn           6         0.750065   0.500076   0.750066   x 
            x  Sn           7         0.750452   0.750474   0.499624   x 
            x  Sn           8         0.249254   0.500363   0.249462   x 
            x  Sn           9        -0.000019   0.499978  -0.000007   x 
            x  Sn          10         0.500668   0.749649   0.749387   x 
            x  Sn          11        -0.000002  -0.000006   0.499999   x 
            x  La           1         0.000047   0.000100   0.000045   x 
            x  La           2         0.749532   0.250172   0.499903   x 
            x  La           3         0.250424   0.500116   0.750211   x 
            x  La           4         0.499844   0.749869   0.249777   x 
            x  La           5         0.250492   0.749827   0.499947   x 
            x  La           6         0.749616   0.499826   0.249839   x 
            x  La           7         0.500161   0.250069   0.750240   x 
            x  La           8        -0.000038   0.499879   0.499939   x 
            x  La           9         0.749606   0.750090   0.000076   x 
            x  La          10         0.250373   0.000042   0.249637   x 
            x  La          11         0.250431   0.249874   0.000158   x 
            x  La          12         0.749653   0.000292   0.750427   x 
            x  La          13         0.499974   0.000208   0.499792   x 
            x  La          14         0.000248   0.750009   0.750402   x 
            x  La          15        -0.000188   0.250006   0.249647   x 
            x  La          16         0.499936   0.499945   0.000124   x 
            xxxxxxxxxxxxxxxxxxxxxxxxxxxxxxxxxxxxxxxxxxxxxxxxxxxxxxxxxxxx
 
 
                         No user defined ionic velocities
 
                           -------------------------------
                                   Details of Species
                           -------------------------------
 
                               Mass of species in AMU
                                    O   15.9994000
                                    Zr   91.2240000
                                    Sn  118.7100000
                                    La  138.9055000
 
                          Electric Quadrupole Moment (Barn)
                                    O   -0.0255800 Isotope 17
                                    Zr   -0.1760000 Isotope 91
                                    Sn    1.0000000 No Isotope Defined
                                    La    0.2000000 Isotope139
 
                          Files used for pseudopotentials:
                                    O 2|1.1|15|18|20|20:21(qc=7)
                                    Zr 3|2.1|7|8|9|40U:50:41:42
                                    Sn 3|2.2|7|8|9|50:51:42
                                    La 2|2.3|5|6|7|50U:60:51:52(qc=4.5)
 
                           -------------------------------
                              k-Points For BZ Sampling
                           -------------------------------
                       MP grid size for SCF calculation is  3  3  3
                            with an offset of   0.000  0.000  0.000
                       Number of kpoints used =   14
 
                           -------------------------------
                               Symmetry and Constraints
                           -------------------------------
 
                      Maximum deviation from symmetry =  0.00000         ANG
 
         There are no symmetry operations specified or generated for this cell
                      Number of ionic constraints     = 3
                      Point group of crystal =     1: C1, 1, 1
                      Space group of crystal =     1: P1, P 1
 
 
                         Centre of mass is constrained
             Set iprint > 1 for details of linear ionic constraints
 
                         Number of cell constraints= 0
                         Cell constraints are:  1 2 3 4 5 6
 
                         External pressure/stress (GPa)
                          0.00000   0.00000   0.00000
                                    0.00000   0.00000
                                              0.00000
  
+---------------- MEMORY AND SCRATCH DISK ESTIMATES PER PROCESS --------------+
|                                                     Memory          Disk    |
| Baseline code, static data and system overhead      843.0 MB         0.0 MB |
| BLAS internal memory storage                          0.0 MB         0.0 MB |
| Model and support data                              149.3 MB         0.0 MB |
| Electronic energy minimisation requirements          28.5 MB         0.0 MB |
| Force calculation requirements                        1.5 MB         0.0 MB |
| Stress calculation requirements                       1.8 MB         0.0 MB |
|                                               ----------------------------- |
| Approx. total storage required per process         1020.8 MB         0.0 MB |
|                                                                             |
| Requirements will fluctuate during execution and may exceed these estimates |
+-----------------------------------------------------------------------------+
Calculating finite basis set correction with  3 cut-off energies.
Calculating total energy with cut-off of  806.342eV.
------------------------------------------------------------------------ <-- SCF
SCF loop      Energy           Fermi           Energy gain       Timer   <-- SCF
                               energy          per atom          (sec)   <-- SCF
------------------------------------------------------------------------ <-- SCF
Initial  -5.90791059E+004  0.00000000E+000                        34.79  <-- SCF
      1  -6.67876812E+004  7.31847444E+000   8.75974463E+001      45.55  <-- SCF
      2  -6.93329309E+004  6.39444381E+000   2.89232916E+001      53.02  <-- SCF
      3  -6.94180471E+004  6.02616106E+000   9.67230069E-001      61.07  <-- SCF
      4  -6.94088083E+004  7.47603440E+000  -1.04987118E-001      70.25  <-- SCF
      5  -6.93129030E+004  6.60451174E+000  -1.08983243E+000      79.44  <-- SCF
      6  -6.93139729E+004  6.49492168E+000   1.21574647E-002      91.55  <-- SCF
      7  -6.93135778E+004  6.57582389E+000  -4.48896089E-003     101.49  <-- SCF
      8  -6.93136900E+004  6.58068023E+000   1.27435587E-003     115.09  <-- SCF
      9  -6.93137146E+004  6.58224002E+000   2.80004774E-004     125.86  <-- SCF
     10  -6.93137124E+004  6.58162528E+000  -2.46161689E-005     136.07  <-- SCF
     11  -6.93137128E+004  6.58276210E+000   4.36150080E-006     146.50  <-- SCF
     12  -6.93137130E+004  6.58298416E+000   2.47742760E-006     157.12  <-- SCF
     13  -6.93137130E+004  6.58271069E+000  -3.51818373E-008     166.80  <-- SCF
     14  -6.93137130E+004  6.58259265E+000  -3.71905527E-007     176.43  <-- SCF
     15  -6.93137130E+004  6.58234228E+000  -7.57562001E-008     187.02  <-- SCF
     16  -6.93137130E+004  6.58217627E+000  -5.64816728E-009     196.03  <-- SCF
     17  -6.93137130E+004  6.58213453E+000  -8.66426358E-009     204.51  <-- SCF
     18  -6.93137130E+004  6.58207958E+000   9.26385491E-010     211.63  <-- SCF
     19  -6.93137130E+004  6.58205467E+000   4.22273168E-010     217.92  <-- SCF
     20  -6.93137130E+004  6.58205558E+000   4.66848790E-011     224.10  <-- SCF
------------------------------------------------------------------------ <-- SCF
 
Final energy, E             =  -69313.71300513     eV
Final free energy (E-TS)    =  -69313.71300513     eV
(energies not corrected for finite basis set)
 
NB est. 0K energy (E-0.5TS)      =  -69313.71300513     eV
 
Calculating total energy with cut-off of  811.342eV.
------------------------------------------------------------------------ <-- SCF
SCF loop      Energy           Fermi           Energy gain       Timer   <-- SCF
                               energy          per atom          (sec)   <-- SCF
------------------------------------------------------------------------ <-- SCF
Initial  -6.93137130E+004  0.00000000E+000                       226.22  <-- SCF
      1  -6.93137156E+004  6.58205212E+000   2.92323512E-005     234.57  <-- SCF
      2  -6.93137156E+004  6.58205212E+000   1.87864453E-010     240.68  <-- SCF
      3  -6.93137156E+004  6.58204758E+000   1.73648064E-008     246.78  <-- SCF
      4  -6.93137156E+004  6.58205406E+000   5.82717285E-010     252.89  <-- SCF
      5  -6.93137156E+004  6.58205170E+000  -5.70905449E-011     259.00  <-- SCF
------------------------------------------------------------------------ <-- SCF
 
Final energy, E             =  -69313.71557916     eV
Final free energy (E-TS)    =  -69313.71557916     eV
(energies not corrected for finite basis set)
 
NB est. 0K energy (E-0.5TS)      =  -69313.71557916     eV
 
Calculating total energy with cut-off of  816.342eV.
------------------------------------------------------------------------ <-- SCF
SCF loop      Energy           Fermi           Energy gain       Timer   <-- SCF
                               energy          per atom          (sec)   <-- SCF
------------------------------------------------------------------------ <-- SCF
Initial  -6.93137156E+004  0.00000000E+000                       261.12  <-- SCF
      1  -6.93137185E+004  6.58205112E+000   3.34083127E-005     269.49  <-- SCF
      2  -6.93137185E+004  6.58205112E+000   1.99676290E-010     275.64  <-- SCF
      3  -6.93137185E+004  6.58204529E+000   2.00827944E-008     281.74  <-- SCF
      4  -6.93137185E+004  6.58205130E+000   6.45713749E-010     287.90  <-- SCF
      5  -6.93137185E+004  6.58204754E+000  -8.15579212E-012     294.04  <-- SCF
------------------------------------------------------------------------ <-- SCF
 
Final energy, E             =  -69313.71852094     eV
Final free energy (E-TS)    =  -69313.71852094     eV
(energies not corrected for finite basis set)
 
NB est. 0K energy (E-0.5TS)      =  -69313.71852094     eV
 
 For future reference: finite basis dEtot/dlog(Ecut) =      -0.442444eV
 Total energy corrected for finite basis set =  -69313.718510 eV
 
  =====================================================================
  +       Calculation of Nuclear Magnetic Resonance Parameters        +
  + ================================================================= +
 
  Starting Calculation of Electric Field Gradient Tensors         |<-- EFG
  +---------------- MEMORY AND SCRATCH DISK ESTIMATES PER PROCESS --------------+
  |                                                     Memory          Disk    |
  | Model and support data                              151.1 MB         0.0 MB |
  | NMR EFG calculation requirements                     27.6 MB         0.0 MB |
  |                                               ----------------------------- |
  | Approx. total storage required per process          178.6 MB         0.0 MB |
  |                                                                             |
  | Requirements will fluctuate during execution and may exceed these estimates |
  +-----------------------------------------------------------------------------+
  Total Time for EFG Tensors                      29.49 sec       |<-- EFG
 
  Starting Calculation of Chemical Shielding Tensors              |<-- NMR
  +---------------- MEMORY AND SCRATCH DISK ESTIMATES PER PROCESS --------------+
  |                                                     Memory          Disk    |
  | Model and support data                              151.1 MB         0.0 MB |
  | NMR chemical shift calculation requirements          91.3 MB         0.0 MB |
  |                                               ----------------------------- |
  | Approx. total storage required per process          242.3 MB         0.0 MB |
  |                                                                             |
  | Requirements will fluctuate during execution and may exceed these estimates |
  +-----------------------------------------------------------------------------+
  Starting k-point:   1 of   1                                    |<-- NMR
  Total Time for step 1 of 6:                    262.48 sec       |<-- NMR
  Total Time for step 2 of 6:                    260.91 sec       |<-- NMR
  Total Time for step 3 of 6:                    260.95 sec       |<-- NMR
  Total Time for step 4 of 6:                    262.14 sec       |<-- NMR
  Total Time for step 5 of 6:                    260.82 sec       |<-- NMR
  Total Time for step 6 of 6:                    261.80 sec       |<-- NMR
  Total Time for Chemical Shielding Tensors     2340.15 sec       |<-- NMR
 
  ========================================================================
  |           Chemical Shielding and Electric Field Gradient Tensors     |
  |----------------------------------------------------------------------|
  |     Nucleus                Shielding tensor             EFG Tensor   |
  |  Species       Ion    Iso(ppm)   Aniso(ppm)  Asym    Cq(MHz)    Eta  |
  |    O           1     -319.09      10.34      0.60  -4.921E-02   0.32 |
  |    O           2     -318.83     -14.00      0.23  -6.140E-02   0.24 |
  |    O           3     -319.08     -10.96      0.76   2.171E-02   0.54 |
  |    O           4     -319.31     -11.62      0.90  -5.981E-02   0.41 |
  |    O           5     -319.60     -10.31      0.74  -3.388E-02   0.56 |
  |    O           6     -319.73     -11.06      0.48  -5.471E-02   0.54 |
  |    O           7     -319.88      14.94      0.83  -7.644E-02   0.43 |
  |    O           8     -319.03     -13.74      0.50  -4.588E-02   0.17 |
  |    O           9     -159.17     151.96      0.79   1.060E+00   0.67 |
  |    O          10      -19.03      39.03      0.67   3.919E+00   0.84 |
  |    O          11       -5.47     -57.28      0.95   3.784E+00   0.99 |
  |    O          12      -11.08      56.86      0.96   3.790E+00   0.93 |
  |    O          13       -7.85      58.29      0.72   3.867E+00   0.90 |
  |    O          14     -160.72     152.91      0.78   1.022E+00   0.70 |
  |    O          15       -7.54      58.66      0.88   3.804E+00   0.93 |
  |    O          16      -15.85     -41.09      0.64   3.852E+00   0.93 |
  |    O          17      -17.59     -44.30      0.64   3.811E+00   0.92 |
  |    O          18       -5.13      59.44      0.76   3.849E+00   0.95 |
  |    O          19      -13.29      60.64      0.40   3.903E+00   0.85 |
  |    O          20     -159.28     144.77      0.80   1.050E+00   0.61 |
  |    O          21      -16.56     -44.56      0.57   3.831E+00   0.93 |
  |    O          22       -7.34      56.44      0.89   3.824E+00   0.94 |
  |    O          23      -86.93      78.65      0.07  -3.220E+00   0.09 |
  |    O          24      -84.55      87.97      0.16  -3.174E+00   0.08 |
  |    O          25        3.21     -70.03      0.87   3.748E+00   1.00 |
  |    O          26      -18.66     -42.99      0.61   3.819E+00   0.92 |
  |    O          27      -81.78      87.56      0.20  -3.213E+00   0.07 |
  |    O          28      -90.44      80.02      0.14  -3.233E+00   0.11 |
  |    O          29      -86.63      89.30      0.08  -3.213E+00   0.06 |
  |    O          30      -86.82      80.28      0.25  -3.246E+00   0.11 |
  |    O          31       -0.46      67.23      0.92   3.790E+00   0.96 |
  |    O          32      -16.88     -45.24      0.45   3.776E+00   0.96 |
  |    O          33      -18.40      39.24      0.76   3.921E+00   0.84 |
  |    O          34      -12.24      56.16      0.89   3.794E+00   0.93 |
  |    O          35      -88.75      85.46      0.13  -3.136E+00   0.06 |
  |    O          36      -17.15      37.83      0.91   3.883E+00   0.88 |
  |    O          37       -8.44      58.04      0.83   3.827E+00   0.95 |
  |    O          38     -161.76     152.89      0.84   1.055E+00   0.69 |
  |    O          39      -14.43     -42.91      0.59   3.849E+00   0.93 |
  |    O          40      -82.49      85.62      0.15  -3.166E+00   0.07 |
  |    O          41      -19.14     -43.16      0.64   3.815E+00   0.92 |
  |    O          42      -91.78      94.82      0.24  -3.184E+00   0.10 |
  |    O          43      -84.95      84.43      0.14  -3.190E+00   0.05 |
  |    O          44      -80.63      85.10      0.18  -3.190E+00   0.07 |
  |    O          45      -85.14      86.55      0.22  -3.195E+00   0.06 |
  |    O          46      -82.19      85.92      0.20  -3.133E+00   0.04 |
  |    O          47      -20.74      39.07      0.67   3.920E+00   0.85 |
  |    O          48      -89.89      84.15      0.18  -3.187E+00   0.08 |
  |    O          49      -87.65      88.43      0.14  -3.188E+00   0.06 |
  |    O          50      -85.88      87.95      0.31  -3.156E+00   0.06 |
  |    O          51      -84.38      87.76      0.19  -3.163E+00   0.03 |
  |    O          52     -160.94     157.24      0.83   1.083E+00   0.65 |
  |    O          53      -17.70      38.02      0.68   3.943E+00   0.85 |
  |    O          54      -87.54      85.74      0.17  -3.139E+00   0.05 |
  |    O          55      -88.33      85.56      0.13  -3.202E+00   0.07 |
  |    O          56      -88.16      86.89      0.29  -3.205E+00   0.08 |
  |    Zr          1     1610.46    -115.93      0.09  -3.496E+01   0.17 |
  |    Zr          2     1610.80    -115.81      0.14  -3.484E+01   0.09 |
  |    Zr          3     1616.40    -116.00      0.11  -3.570E+01   0.08 |
  |    Zr          4     1631.37    -120.21      0.11  -3.639E+01   0.14 |
  |    Zr          5     1630.57    -121.71      0.06  -3.668E+01   0.16 |
  |    Sn          1     3237.78     -46.34      0.16   1.227E+02   0.08 |
  |    Sn          2     3243.69     -64.20      0.36   1.184E+02   0.17 |
  |    Sn          3     3245.84     -59.29      0.11   1.209E+02   0.11 |
  |    Sn          4     3243.86     -64.24      0.38   1.185E+02   0.16 |
  |    Sn          5     3246.94     -58.61      0.08   1.199E+02   0.10 |
  |    Sn          6     3254.18     -63.35      0.36   1.213E+02   0.08 |
  |    Sn          7     3245.65     -62.53      0.37   1.172E+02   0.08 |
  |    Sn          8     3255.59     -62.84      0.47   1.242E+02   0.07 |
  |    Sn          9     3254.38     -60.59      0.57   1.214E+02   0.28 |
  |    Sn         10     3254.69     -58.25      0.18   1.248E+02   0.24 |
  |    Sn         11     3234.88     -65.33      0.20   1.149E+02   0.16 |
  |    La          1     4602.84     543.32      0.07  -7.996E+01   0.20 |
  |    La          2     4602.97     517.09      0.08  -7.918E+01   0.08 |
  |    La          3     4611.07     517.85      0.06  -8.115E+01   0.09 |
  |    La          4     4650.96     661.33      0.09  -8.305E+01   0.16 |
  |    La          5     4554.81     386.44      0.06  -7.602E+01   0.08 |
  |    La          6     4655.60     626.90      0.01  -8.351E+01   0.01 |
  |    La          7     4651.10     657.72      0.10  -8.281E+01   0.17 |
  |    La          8     4503.19     232.04      0.01  -7.311E+01   0.03 |
  |    La          9     4546.62     393.29      0.08  -7.476E+01   0.12 |
  |    La         10     4656.88     630.84      0.01  -8.361E+01   0.02 |
  |    La         11     4596.90     518.37      0.09  -7.747E+01   0.09 |
  |    La         12     4611.37     509.70      0.07  -8.064E+01   0.08 |
  |    La         13     4545.36     394.66      0.07  -7.524E+01   0.14 |
  |    La         14     4562.39     380.54      0.04  -7.807E+01   0.10 |
  |    La         15     4553.87     389.47      0.05  -7.691E+01   0.11 |
  |    La         16     4646.26     660.82      0.10  -8.102E+01   0.15 |
  ========================================================================
 
 *********************** Forces ***********************
 *                                                    *
 *            Cartesian components (eV/A)             *
 * -------------------------------------------------- *
 *                   x            y            z      *
 *                                                    *
 * O         1      0.01053      0.00357     -0.00183 *
 * O         2     -0.01040      0.00399     -0.00285 *
 * O         3      0.01672     -0.00656      0.00519 *
 * O         4     -0.00932      0.00275     -0.00130 *
 * O         5     -0.01402     -0.00467     -0.01615 *
 * O         6     -0.01772      0.00641      0.01222 *
 * O         7      0.00712     -0.00543      0.01059 *
 * O         8      0.00904      0.00689     -0.01288 *
 * O         9     -0.00451      0.01092      0.00276 *
 * O        10     -0.00845     -0.00278     -0.00903 *
 * O        11      0.01464     -0.00510      0.00991 *
 * O        12     -0.01706      0.00020     -0.00303 *
 * O        13     -0.00596     -0.01044      0.00179 *
 * O        14     -0.01175      0.00122      0.00296 *
 * O        15     -0.00401      0.02021     -0.00274 *
 * O        16      0.01228      0.00063     -0.00247 *
 * O        17     -0.00582      0.00379     -0.01321 *
 * O        18     -0.00571     -0.01388      0.00307 *
 * O        19      0.00880      0.00855     -0.00502 *
 * O        20     -0.00141     -0.00289     -0.00764 *
 * O        21      0.00412     -0.00541      0.00092 *
 * O        22     -0.00634      0.00948      0.00254 *
 * O        23      0.01806     -0.01321      0.01103 *
 * O        24      0.01999      0.00664     -0.01469 *
 * O        25     -0.03330      0.00123     -0.00862 *
 * O        26      0.00705     -0.00922     -0.00190 *
 * O        27     -0.00558      0.01107      0.01754 *
 * O        28      0.02576     -0.00208      0.01638 *
 * O        29     -0.00176     -0.01464     -0.00207 *
 * O        30      0.00200     -0.02577      0.02688 *
 * O        31      0.01044      0.00755     -0.02454 *
 * O        32     -0.00334     -0.00159      0.01497 *
 * O        33      0.00738      0.00347      0.00354 *
 * O        34      0.01329     -0.00221      0.00373 *
 * O        35     -0.00448      0.00906      0.01193 *
 * O        36     -0.00499     -0.00490     -0.00415 *
 * O        37      0.00374      0.00916     -0.00814 *
 * O        38      0.01216     -0.00360      0.00790 *
 * O        39     -0.00830      0.00421     -0.00088 *
 * O        40     -0.00604      0.00481     -0.01617 *
 * O        41     -0.00781      0.00978      0.00033 *
 * O        42     -0.02512      0.00014     -0.01515 *
 * O        43      0.01502      0.01108      0.00396 *
 * O        44     -0.02292      0.00515     -0.01023 *
 * O        45      0.01366     -0.00707     -0.02046 *
 * O        46     -0.00145      0.01026     -0.00529 *
 * O        47      0.00803      0.00629     -0.01255 *
 * O        48     -0.02337     -0.01140      0.00500 *
 * O        49     -0.00192      0.01207      0.01814 *
 * O        50     -0.00147     -0.01387      0.01310 *
 * O        51      0.00727     -0.01235      0.00866 *
 * O        52      0.00275     -0.01526      0.00138 *
 * O        53     -0.00484     -0.00697      0.01366 *
 * O        54      0.00897      0.01486     -0.00224 *
 * O        55      0.00791     -0.00782     -0.01735 *
 * O        56     -0.01194      0.01418     -0.01032 *
 * Zr        1      0.00262      0.00624      0.00825 *
 * Zr        2     -0.00197     -0.00490     -0.00237 *
 * Zr        3      0.00868      0.01393     -0.00868 *
 * Zr        4      0.00226      0.00315     -0.00724 *
 * Zr        5      0.00718      0.00727      0.00632 *
 * Sn        1      0.02800     -0.02856      0.02392 *
 * Sn        2      0.01290     -0.00538     -0.01278 *
 * Sn        3     -0.01954      0.00747     -0.02356 *
 * Sn        4     -0.00897      0.00084      0.01429 *
 * Sn        5     -0.02936     -0.00628      0.01943 *
 * Sn        6      0.00608      0.00585      0.00195 *
 * Sn        7      0.01890      0.00212      0.00137 *
 * Sn        8     -0.01866      0.00372     -0.00176 *
 * Sn        9      0.00283      0.00938     -0.00972 *
 * Sn       10      0.00280     -0.00773     -0.01153 *
 * Sn       11      0.00117     -0.00865      0.00900 *
 * La        1     -0.00809     -0.01412     -0.01642 *
 * La        2      0.01741      0.01112     -0.00087 *
 * La        3     -0.02885      0.02358     -0.02444 *
 * La        4     -0.01172      0.00543      0.01189 *
 * La        5     -0.02207     -0.01484      0.02392 *
 * La        6      0.01990     -0.00519      0.01923 *
 * La        7      0.01275     -0.00732     -0.00468 *
 * La        8      0.01020      0.01245      0.01152 *
 * La        9      0.02374      0.01294     -0.02217 *
 * La       10     -0.01221     -0.00879      0.00293 *
 * La       11     -0.01227     -0.00833      0.00225 *
 * La       12      0.01573     -0.00742      0.00442 *
 * La       13     -0.00229     -0.00827      0.00911 *
 * La       14      0.00580     -0.00589     -0.01309 *
 * La       15     -0.00247      0.00666      0.01663 *
 * La       16      0.00392     -0.00099     -0.00430 *
 *                                                    *
 ******************************************************
 
 ***************** Stress Tensor *****************
 *                                               *
 *          Cartesian components (GPa)           *
 * --------------------------------------------- *
 *             x             y             z     *
 *                                               *
 *  x      0.000707     -0.002355      0.000094  *
 *  y     -0.002355      0.014134     -0.026639  *
 *  z      0.000094     -0.026639     -0.000335  *
 *                                               *
 *  Pressure:   -0.0048                          *
 *                                               *
 *************************************************
 
 Pseudo atomic calculation performed for O 2s2 2p4
 
 Converged in 39 iterations to a total energy of -432.6554 eV
 
 
 Pseudo atomic calculation performed for Zr 4s2 4p6 4d2 5s2
 
 Converged in 38 iterations to a total energy of -1285.4931 eV
 
 
 Pseudo atomic calculation performed for Sn 4d10 5s2 5p2
 
 Converged in 48 iterations to a total energy of -2044.5413 eV
 
 
 Pseudo atomic calculation performed for La 5s2 5p6 5d1 6s2
 
 Converged in 34 iterations to a total energy of -968.0373 eV
 
Charge spilling parameter for spin component 1 = 0.26%
 
     Atomic Populations (Mulliken)
     -----------------------------
Species   Ion     s      p      d      f     Total  Charge (e)
==============================================================
  O        1     1.87   5.00   0.00   0.00   6.87    -0.87
  O        2     1.87   5.00   0.00   0.00   6.87    -0.87
  O        3     1.87   5.00   0.00   0.00   6.87    -0.87
  O        4     1.87   5.00   0.00   0.00   6.87    -0.87
  O        5     1.87   5.00   0.00   0.00   6.87    -0.87
  O        6     1.87   5.00   0.00   0.00   6.87    -0.87
  O        7     1.87   5.00   0.00   0.00   6.87    -0.87
  O        8     1.87   5.00   0.00   0.00   6.87    -0.87
  O        9     1.86   4.95   0.00   0.00   6.80    -0.80
  O       10     1.88   5.03   0.00   0.00   6.91    -0.91
  O       11     1.88   5.03   0.00   0.00   6.91    -0.91
  O       12     1.88   5.03   0.00   0.00   6.91    -0.91
  O       13     1.88   5.03   0.00   0.00   6.91    -0.91
  O       14     1.86   4.95   0.00   0.00   6.80    -0.80
  O       15     1.88   5.03   0.00   0.00   6.91    -0.91
  O       16     1.88   5.03   0.00   0.00   6.91    -0.91
  O       17     1.88   5.03   0.00   0.00   6.91    -0.91
  O       18     1.88   5.03   0.00   0.00   6.91    -0.91
  O       19     1.88   5.03   0.00   0.00   6.91    -0.91
  O       20     1.86   4.95   0.00   0.00   6.80    -0.80
  O       21     1.88   5.03   0.00   0.00   6.91    -0.91
  O       22     1.88   5.03   0.00   0.00   6.91    -0.91
  O       23     1.87   4.99   0.00   0.00   6.86    -0.86
  O       24     1.87   4.99   0.00   0.00   6.86    -0.86
  O       25     1.88   5.03   0.00   0.00   6.91    -0.91
  O       26     1.89   5.03   0.00   0.00   6.91    -0.91
  O       27     1.87   4.99   0.00   0.00   6.86    -0.86
  O       28     1.87   4.99   0.00   0.00   6.86    -0.86
  O       29     1.87   4.99   0.00   0.00   6.86    -0.86
  O       30     1.87   4.99   0.00   0.00   6.86    -0.86
  O       31     1.88   5.03   0.00   0.00   6.91    -0.91
  O       32     1.89   5.03   0.00   0.00   6.91    -0.91
  O       33     1.88   5.03   0.00   0.00   6.91    -0.91
  O       34     1.88   5.03   0.00   0.00   6.91    -0.91
  O       35     1.87   4.99   0.00   0.00   6.86    -0.86
  O       36     1.88   5.03   0.00   0.00   6.91    -0.91
  O       37     1.88   5.03   0.00   0.00   6.91    -0.91
  O       38     1.86   4.95   0.00   0.00   6.80    -0.80
  O       39     1.88   5.03   0.00   0.00   6.91    -0.91
  O       40     1.87   4.99   0.00   0.00   6.86    -0.86
  O       41     1.89   5.03   0.00   0.00   6.91    -0.91
  O       42     1.87   4.99   0.00   0.00   6.86    -0.86
  O       43     1.87   4.99   0.00   0.00   6.86    -0.86
  O       44     1.87   4.99   0.00   0.00   6.86    -0.86
  O       45     1.87   4.99   0.00   0.00   6.86    -0.86
  O       46     1.87   4.99   0.00   0.00   6.86    -0.86
  O       47     1.88   5.03   0.00   0.00   6.91    -0.91
  O       48     1.87   4.99   0.00   0.00   6.86    -0.86
  O       49     1.87   4.99   0.00   0.00   6.86    -0.86
  O       50     1.87   4.99   0.00   0.00   6.86    -0.86
  O       51     1.87   4.99   0.00   0.00   6.86    -0.86
  O       52     1.86   4.95   0.00   0.00   6.80    -0.80
  O       53     1.88   5.03   0.00   0.00   6.91    -0.91
  O       54     1.87   4.99   0.00   0.00   6.86    -0.86
  O       55     1.87   4.99   0.00   0.00   6.86    -0.86
  O       56     1.87   4.99   0.00   0.00   6.86    -0.86
  Zr       1     2.36   6.49   1.92   0.00  10.77     1.23
  Zr       2     2.37   6.49   1.92   0.00  10.77     1.23
  Zr       3     2.36   6.48   1.92   0.00  10.76     1.24
  Zr       4     2.36   6.47   1.92   0.00  10.75     1.25
  Zr       5     2.36   6.47   1.92   0.00  10.76     1.24
  Sn       1     1.04   1.31  10.00   0.00  12.35     1.65
  Sn       2     1.04   1.31  10.00   0.00  12.35     1.65
  Sn       3     1.04   1.31  10.00   0.00  12.35     1.65
  Sn       4     1.04   1.31  10.00   0.00  12.35     1.65
  Sn       5     1.04   1.31  10.00   0.00  12.35     1.65
  Sn       6     1.04   1.31  10.00   0.00  12.35     1.65
  Sn       7     1.04   1.31  10.00   0.00  12.35     1.65
  Sn       8     1.04   1.31  10.00   0.00  12.35     1.65
  Sn       9     1.04   1.31  10.00   0.00  12.35     1.65
  Sn      10     1.04   1.31  10.00   0.00  12.35     1.65
  Sn      11     1.04   1.31  10.00   0.00  12.35     1.65
  La       1     2.08   6.18   1.20   0.00   9.45     1.55
  La       2     2.08   6.18   1.19   0.00   9.46     1.54
  La       3     2.05   6.19   1.19   0.00   9.43     1.57
  La       4     2.04   6.17   1.20   0.00   9.40     1.60
  La       5     2.10   6.19   1.19   0.00   9.49     1.51
  La       6     2.03   6.18   1.19   0.00   9.40     1.60
  La       7     2.04   6.17   1.20   0.00   9.40     1.60
  La       8     2.13   6.21   1.19   0.00   9.53     1.47
  La       9     2.10   6.19   1.19   0.00   9.48     1.52
  La      10     2.04   6.17   1.19   0.00   9.40     1.60
  La      11     2.08   6.18   1.19   0.00   9.45     1.55
  La      12     2.06   6.19   1.19   0.00   9.44     1.56
  La      13     2.10   6.19   1.19   0.00   9.48     1.52
  La      14     2.09   6.20   1.19   0.00   9.48     1.52
  La      15     2.09   6.19   1.19   0.00   9.48     1.52
  La      16     2.05   6.16   1.20   0.00   9.41     1.59
==============================================================
 
            Bond              Population      Length (A)
============================================================
         O 45 -- Sn 10             0.35        2.09866
         O 29 -- Sn 9              0.35        2.09948
         O 27 -- Sn 10             0.35        2.09994
         O 43 -- Sn 9              0.35        2.10085
         O 30 -- Sn 8              0.34        2.10133
         O 28 -- Sn 6              0.34        2.10222
         O 49 -- Sn 2              0.34        2.10296
         O 56 -- Sn 6              0.34        2.10345
         O 24 -- Sn 5              0.34        2.10356
         O 42 -- Sn 8              0.34        2.10380
         O 23 -- Sn 3              0.34        2.10417
         O 53 -- Sn 4              0.34        2.10421
         O 53 -- Sn 1              0.34        2.10442
         O 10 -- Sn 3              0.34        2.10459
         O 33 -- Sn 7              0.34        2.10492
         O 55 -- Sn 4              0.34        2.10496
         O 36 -- Sn 11             0.34        2.10556
         O 47 -- Sn 2              0.34        2.10605
         O 48 -- Sn 7              0.34        2.10609
         O 33 -- Sn 1              0.34        2.10649
         O 44 -- Sn 1              0.34        2.10697
         O 50 -- Sn 8              0.34        2.10740
         O 10 -- Sn 5              0.33        2.10752
         O 39 -- Sn 5              0.34        2.10838
         O 51 -- Sn 3              0.34        2.10850
         O 52 -- Zr 1              0.42        2.10896
         O 36 -- Sn 1              0.34        2.10911
         O 16 -- Sn 11             0.34        2.10914
         O 35 -- Sn 10             0.34        2.10973
         O 13 -- Sn 8              0.34        2.10978
         O 39 -- Sn 2              0.34        2.10983
         O 40 -- Sn 1              0.34        2.10986
         O 47 -- Sn 3              0.33        2.10988
         O 19 -- Sn 6              0.33        2.11002
         O 54 -- Sn 5              0.34        2.11031
         O 17 -- Sn 5              0.34        2.11063
         O 38 -- Zr 2              0.41        2.11094
         O 21 -- Sn 4              0.34        2.11129
         O 52 -- Zr 5              0.41        2.11144
         O 13 -- Sn 9              0.33        2.11170
         O 18 -- Sn 4              0.33        2.11181
         O 18 -- Sn 8              0.34        2.11184
         O 19 -- Sn 10             0.33        2.11184
         O 46 -- Sn 1              0.34        2.11199
         O 16 -- Sn 3              0.34        2.11212
         O 22 -- Sn 6              0.34        2.11259
         O 26 -- Sn 11             0.34        2.11259
         O 41 -- Sn 11             0.34        2.11279
         O 9  -- Zr 4              0.42        2.11298
         O 21 -- Sn 7              0.33        2.11321
         O 15 -- Sn 10             0.34        2.11346
         O 32 -- Sn 7              0.34        2.11355
         O 37 -- Sn 2              0.33        2.11386
         O 15 -- Sn 7              0.33        2.11403
         O 17 -- Sn 11             0.33        2.11426
         O 38 -- Zr 4              0.41        2.11435
         O 22 -- Sn 9              0.33        2.11441
         O 14 -- Zr 3              0.43        2.11489
         O 42 -- Zr 2              0.44        2.11542
         O 11 -- Sn 7              0.33        2.11555
         O 9  -- Zr 5              0.41        2.11570
         O 26 -- Sn 4              0.33        2.11608
         O 41 -- Sn 2              0.33        2.11631
         O 37 -- Sn 6              0.33        2.11666
         O 11 -- Sn 6              0.34        2.11685
         O 20 -- Zr 4              0.42        2.11687
         O 32 -- Sn 11             0.33        2.11697
         O 34 -- Sn 9              0.33        2.11734
         O 12 -- Sn 9              0.33        2.11747
         O 34 -- Sn 2              0.33        2.11754
         O 12 -- Sn 4              0.33        2.11787
         O 31 -- Sn 3              0.33        2.11847
         O 20 -- Zr 3              0.42        2.11868
         O 29 -- Zr 3              0.43        2.11874
         O 14 -- Zr 5              0.42        2.11898
         O 31 -- Sn 10             0.33        2.11903
         O 45 -- Zr 1              0.43        2.11914
         O 28 -- Zr 3              0.44        2.11921
         O 25 -- Sn 5              0.33        2.11931
         O 25 -- Sn 8              0.33        2.11954
         O 56 -- Zr 1              0.44        2.12014
         O 30 -- Zr 5              0.44        2.12088
         O 49 -- Zr 3              0.43        2.12117
         O 50 -- Zr 1              0.45        2.12150
         O 35 -- Zr 2              0.44        2.12206
         O 27 -- Zr 4              0.44        2.12243
         O 24 -- Zr 5              0.44        2.12351
         O 43 -- Zr 2              0.43        2.12418
         O 23 -- Zr 4              0.44        2.12447
         O 55 -- Zr 2              0.44        2.12449
         O 40 -- Zr 4              0.45        2.12551
         O 48 -- Zr 1              0.44        2.12608
         O 44 -- Zr 5              0.45        2.12610
         O 51 -- Zr 2              0.44        2.12621
         O 46 -- Zr 3              0.45        2.12700
         O 54 -- Zr 1              0.44        2.12723
         O 4  -- La 6              0.19        2.35546
         O 4  -- La 4              0.18        2.35549
         O 7  -- La 7              0.18        2.35562
         O 8  -- La 4              0.17        2.35611
         O 1  -- La 10             0.18        2.35614
         O 2  -- La 7              0.17        2.35624
         O 4  -- La 16             0.17        2.35641
         O 8  -- La 10             0.18        2.35646
         O 7  -- La 3              0.19        2.35654
         O 7  -- La 16             0.17        2.35685
         O 1  -- La 1              0.18        2.35685
         O 5  -- La 6              0.17        2.35708
         O 2  -- La 12             0.18        2.35714
         O 2  -- La 2              0.17        2.35810
         O 6  -- La 1              0.17        2.35815
         O 5  -- La 2              0.17        2.35850
         O 6  -- La 14             0.18        2.35856
         O 6  -- La 12             0.17        2.35858
         O 7  -- La 11             0.17        2.35862
         O 3  -- La 3              0.16        2.35864
         O 1  -- La 15             0.17        2.35888
         O 8  -- La 5              0.17        2.35918
         O 3  -- La 14             0.17        2.35924
         O 1  -- La 11             0.16        2.35935
         O 4  -- La 9              0.17        2.35935
         O 5  -- La 15             0.16        2.35938
         O 2  -- La 13             0.16        2.35976
         O 8  -- La 13             0.16        2.35992
         O 5  -- La 8              0.17        2.36097
         O 3  -- La 5              0.16        2.36098
         O 6  -- La 9              0.15        2.36134
         O 3  -- La 8              0.16        2.36188
         O 9  -- La 11             0.12        2.66361
         O 39 -- La 8              0.23        2.66367
         O 10 -- La 13             0.22        2.66403
         O 21 -- La 8              0.23        2.66411
         O 52 -- La 2              0.13        2.66450
         O 33 -- La 13             0.22        2.66499
         O 15 -- La 13             0.23        2.66501
         O 12 -- La 9              0.23        2.66504
         O 34 -- La 11             0.23        2.66554
         O 14 -- La 16             0.12        2.66566
         O 45 -- La 5              0.18        2.66601
         O 17 -- La 15             0.23        2.66601
         O 41 -- La 2              0.24        2.66632
         O 22 -- La 9              0.23        2.66653
         O 26 -- La 5              0.24        2.66673
         O 38 -- La 4              0.13        2.66677
         O 29 -- La 15             0.17        2.66698
         O 53 -- La 9              0.22        2.66730
         O 47 -- La 11             0.23        2.66783
         O 27 -- La 9              0.17        2.66784
         O 19 -- La 9              0.24        2.66786
         O 42 -- La 16             0.17        2.66791
         O 16 -- La 5              0.24        2.66802
         O 35 -- La 16             0.17        2.66813
         O 11 -- La 8              0.24        2.66827
         O 24 -- La 13             0.17        2.66847
         O 20 -- La 12             0.14        2.66873
         O 13 -- La 11             0.22        2.66874
         O 20 -- La 7              0.12        2.66884
         O 28 -- La 16             0.17        2.66907
         O 56 -- La 2              0.18        2.66912
         O 50 -- La 5              0.19        2.66928
         O 25 -- La 8              0.24        2.66975
         O 49 -- La 1              0.18        2.66976
         O 48 -- La 4              0.18        2.66981
         O 37 -- La 8              0.25        2.66982
         O 55 -- La 1              0.18        2.66982
         O 43 -- La 14             0.18        2.66984
         O 32 -- La 14             0.24        2.66985
         O 36 -- La 2              0.23        2.67036
         O 40 -- La 9              0.18        2.67052
         O 18 -- La 8              0.24        2.67083
         O 23 -- La 11             0.17        2.67114
         O 30 -- La 11             0.18        2.67133
         O 31 -- La 13             0.24        2.67145
         O 36 -- La 15             0.23        2.67149
         O 13 -- La 15             0.24        2.67155
         O 38 -- La 10             0.13        2.67184
         O 32 -- La 12             0.24        2.67196
         O 17 -- La 10             0.23        2.67243
         O 47 -- La 1              0.23        2.67275
         O 19 -- La 16             0.23        2.67338
         O 31 -- La 5              0.25        2.67359
         O 37 -- La 2              0.24        2.67373
         O 43 -- La 3              0.18        2.67375
         O 54 -- La 7              0.18        2.67388
         O 14 -- La 6              0.14        2.67390
         O 33 -- La 4              0.23        2.67409
         O 21 -- La 6              0.24        2.67413
         O 42 -- La 4              0.17        2.67413
         O 53 -- La 1              0.23        2.67420
         O 10 -- La 7              0.22        2.67427
         O 18 -- La 5              0.23        2.67435
         O 51 -- La 14             0.19        2.67439
         O 51 -- La 1              0.19        2.67443
         O 25 -- La 15             0.25        2.67447
         O 16 -- La 14             0.23        2.67450
         O 44 -- La 13             0.18        2.67454
         O 28 -- La 7              0.17        2.67455
         O 48 -- La 6              0.18        2.67474
         O 41 -- La 12             0.23        2.67488
         O 56 -- La 7              0.17        2.67510
         O 9  -- La 10             0.14        2.67536
         O 29 -- La 6              0.18        2.67547
         O 22 -- La 14             0.24        2.67548
         O 54 -- La 3              0.19        2.67555
         O 52 -- La 6              0.13        2.67559
         O 46 -- La 15             0.19        2.67576
         O 26 -- La 10             0.24        2.67587
         O 39 -- La 3              0.23        2.67593
         O 11 -- La 14             0.25        2.67596
         O 49 -- La 12             0.18        2.67599
         O 12 -- La 6              0.25        2.67599
         O 15 -- La 12             0.24        2.67662
         O 35 -- La 3              0.19        2.67667
         O 46 -- La 1              0.19        2.67686
         O 55 -- La 10             0.18        2.67689
         O 34 -- La 3              0.24        2.67712
         O 30 -- La 16             0.17        2.67762
         O 45 -- La 3              0.18        2.67770
         O 23 -- La 7              0.18        2.67807
         O 50 -- La 4              0.18        2.67884
         O 27 -- La 12             0.18        2.67952
         O 44 -- La 2              0.19        2.67970
         O 24 -- La 10             0.19        2.68061
         O 40 -- La 4              0.18        2.68217
         O 30 -- O 42             -0.06        2.79129
         O 33 -- O 48             -0.06        2.79307
         O 10 -- O 24             -0.06        2.79326
         O 19 -- O 28             -0.06        2.79352
         O 28 -- O 56             -0.06        2.79365
         O 53 -- O 55             -0.06        2.79403
         O 47 -- O 49             -0.06        2.79423
         O 15 -- O 33             -0.05        2.79462
         O 36 -- O 41             -0.06        2.79492
         O 34 -- O 47             -0.05        2.79501
         O 23 -- O 47             -0.06        2.79509
         O 12 -- O 53             -0.05        2.79543
         O 19 -- O 27             -0.06        2.79581
         O 17 -- O 36             -0.05        2.79586
         O 13 -- O 30             -0.06        2.79599
         O 40 -- O 53             -0.06        2.79608
         O 16 -- O 26             -0.05        2.79623
         O 13 -- O 29             -0.06        2.79650
         O 33 -- O 44             -0.06        2.79683
         O 10 -- O 23             -0.06        2.79726
         O 42 -- O 50             -0.06        2.79923
         O 19 -- O 22             -0.05        2.79945
         O 19 -- O 35             -0.06        2.79968
         O 10 -- O 31             -0.05        2.79993
         O 18 -- O 21             -0.05        2.80042
         O 10 -- O 54             -0.06        2.80057
         O 37 -- O 39             -0.05        2.80064
         O 35 -- O 45             -0.06        2.80109
         O 47 -- O 51             -0.06        2.80223
         O 37 -- O 56             -0.06        2.80336
         O 13 -- O 34             -0.05        2.80347
         O 21 -- O 48             -0.06        2.80359
         O 26 -- O 55             -0.06        2.80387
         O 31 -- O 45             -0.06        2.80423
         O 18 -- O 50             -0.06        2.80438
         O 12 -- O 29             -0.06        2.80449
         O 39 -- O 54             -0.06        2.80449
         O 46 -- O 53             -0.06        2.80454
         O 12 -- O 22             -0.05        2.80456
         O 41 -- O 49             -0.06        2.80469
         O 33 -- O 40             -0.06        2.80490
         O 17 -- O 24             -0.06        2.80494
         O 34 -- O 43             -0.06        2.80499
         O 36 -- O 44             -0.06        2.80534
         O 36 -- O 46             -0.06        2.80541
         O 22 -- O 43             -0.06        2.80546
         O 17 -- O 26             -0.05        2.80547
         O 37 -- O 41             -0.05        2.80567
         O 16 -- O 51             -0.06        2.80578
         O 18 -- O 26             -0.05        2.80596
         O 11 -- O 21             -0.05        2.80630
         O 32 -- O 41             -0.05        2.80655
         O 16 -- O 32             -0.05        2.80656
         O 15 -- O 31             -0.05        2.80842
         O 15 -- O 27             -0.05        2.80843
         O 17 -- O 25             -0.05        2.80863
         O 25 -- O 39             -0.05        2.80876
         O 15 -- O 32             -0.05        2.80882
         O 12 -- O 21             -0.05        2.80894
         O 11 -- O 32             -0.05        2.80945
         O 34 -- O 39             -0.05        2.80962
         O 16 -- O 31             -0.05        2.81012
         O 11 -- O 37             -0.05        2.81072
         O 13 -- O 25             -0.05        2.81294
         O 18 -- O 25             -0.05        2.81333
         O 14 -- O 28             -0.03        2.81396
         O 11 -- O 22             -0.05        2.81406
         O 38 -- O 42             -0.03        2.81495
         O 52 -- O 56             -0.03        2.81575
         O 9  -- O 30             -0.03        2.81820
         O 35 -- O 42             -0.03        2.82005
         O 14 -- O 52             -0.03        2.82022
         O 9  -- O 38             -0.03        2.82025
         O 9  -- O 23             -0.03        2.82197
         O 20 -- O 28             -0.03        2.82205
         O 14 -- O 30             -0.03        2.82231
         O 48 -- O 52             -0.03        2.82446
         O 38 -- O 55             -0.03        2.82550
         O 45 -- O 50             -0.03        2.82635
         O 20 -- O 23             -0.03        2.82692
         O 20 -- O 49             -0.03        2.82695
         O 14 -- O 29             -0.03        2.82788
         O 38 -- O 40             -0.03        2.82792
         O 44 -- O 52             -0.03        2.82846
         O 54 -- O 56             -0.03        2.83143
         O 20 -- O 27             -0.03        2.83164
         O 9  -- O 24             -0.03        2.83170
         O 48 -- O 50             -0.03        2.83172
         O 51 -- O 55             -0.03        2.83352
         O 27 -- O 40             -0.03        2.83452
         O 24 -- O 44             -0.03        2.83582
         O 45 -- O 54             -0.03        2.83591
         O 46 -- O 49             -0.03        2.83601
         O 29 -- O 46             -0.03        2.83633
         O 35 -- O 43             -0.03        2.83642
         O 43 -- O 51             -0.03        2.83752
============================================================
 
Initialisation time =     25.02 s
Calculation time    =   2654.05 s
Finalisation time   =      0.13 s
Total time          =   2679.21 s
Peak Memory Use     = 3561156 kB
  
Overall parallel efficiency rating: Good (72%)                                  
  
Data was distributed by:-
G-vector (64-way); efficiency rating: Good (74%)                                
k-point (14-way); efficiency rating: Excellent (96%)                            
