 +-------------------------------------------------+
 |                                                 |
 |      CCC   AA    SSS  TTTTT  EEEEE  PPPP        |
 |     C     A  A  S       T    E      P   P       |
 |     C     AAAA   SS     T    EEE    PPPP        |
 |     C     A  A     S    T    E      P           |
 |      CCC  A  A  SSS     T    EEEEE  P           |
 |                                                 |
 +-------------------------------------------------+
 |                                                 |
 | Welcome to Academic Release CASTEP version 16.1 |          
 | Ab Initio Total Energy Program                  |
 |                                                 |
 | Authors:                                        |
 | M. Segall, M. Probert, C. Pickard, P. Hasnip,   |
 | S. Clark, K. Refson, J. R. Yates, M. Payne      |
 |                                                 |
 | Contributors:                                   |
 | P. Lindan, P. Haynes, J. White, V. Milman,      |
 | N. Govind, M. Gibson, P. Tulip, V. Cocula,      |
 | B. Montanari, D. Quigley, M. Glover,            |
 | L. Bernasconi, A. Perlov, M. Plummer,           |
 | E. McNellis, J. Meyer, J. Gale, D. Jochym       |
 | J. Aarons, B. Walker, R. Gillen, D. Jones       |
 | T. Green, I. J. Bush, C. J. Armstrong,          |
 | E. J. Higgins, E. L. Brown, M. S. McFly         |
 |                                                 |
 | Copyright (c) 2000 - 2015                       |
 |                                                 |
 |     Distributed under the terms of an           |
 |     Agreement between the United Kingdom        |
 |     Car-Parrinello (UKCP) Consortium,           |
 |     Daresbury Laboratory and Accelrys, Inc.     |
 |                                                 |
 | Please cite                                     |
 |                                                 |
 |     "First principles methods using CASTEP"     |
 |                                                 |
 |         Zeitschrift fuer Kristallographie       |
 |           220(5-6) pp. 567-570 (2005)           |
 |                                                 |
 | S. J. Clark, M. D. Segall, C. J. Pickard,       |
 | P. J. Hasnip, M. J. Probert, K. Refson,         |
 | M. C. Payne                                     |
 |                                                 |
 |       in all publications arising from          |
 |              your use of CASTEP                 |
 |                                                 |
 +-------------------------------------------------+
 
 
 Compiled for linux_x86_64_cray-XT on Tue, 22 Mar 2022 15:42:52 +0000
 from code version b833c1ffcd7d+  Fri, 13 Jun 2014 17:24:31 +0100
 Compiler: Cray Fortran 11.0.4; Optimisation: intermediate
 MATHLIBS: LibSci (LAPACK version 3.6.1)
 FFT Lib : default
 Fundamental constants values: CODATA 2010
 
 Run started: Tue, 29 Mar 2022 23:58:59 -0100
 +-------------------------------------------------+
 |                                                 |
 |           N   N    M   M    RRRR                |
 |           NN  N    MM MM    R   R               |
 |           N N N    M M M    RRRR                |
 |           N  NN    M   M    R  R                |
 |           N   N    M   M    R   R               |
 |                                                 |
 +-------------------------------------------------+
 |                                                 |
 | Welcome to Materials Studio CASTEP-NMR          |
 |                                                 |
 | Authors:                                        |
 | J.R. Yates, C.J. Pickard, F. Mauri              |
 |                                                 |
 | Contributors:                                   |
 | T.F.G. Green, S.A. Joyce                        |
 |                                                 |
 | Copyright (c) 2004 - 2015                       |
 |                                                 |
 | Please cite the appropriate publications in all |
 | work arising from your use of CASTEP NMR.       |
 |                                                 |
 | For NMR Shielding Tensors cite:                 |
 |    "All-electron magnetic response with         |
 |    pseudopotentials: NMR chemical shifts",      |
 |    C. J. Pickard, F. Mauri;                     |
 |    Physical Review B63 245101 (2001), and       |
 |                                                 |
 |    "Calculation of NMR Chemical Shifts          |
 |    for extended systems using                   |
 |    Ultrasoft Pseudopotentials",                 |
 |    J. R. Yates, C. J. Pickard and F. Mauri      |
 |    Physical Review B76 024401 (2007)            |
 |                                                 |
 | For Electric Field Gradients cite:              |
 |   "Accurate First Principles Prediction of 17O  |
 |    NMR Parameters in SiO2: Assignment of the    |
 |    Zeolite Ferrierite Spectrum"                 |
 |    M. Profeta, F. Mauri and C. J. Pickard       |
 |    J. Amer. Chem. Soc. 125 541 (2003)           |
 |                                                 |
 | For Spin-Spin (J) Couplings cite:               |
 |   "A first principles theory of NMR J-coupling  |
 |   in solid-state systems"                       |
 |   S.A. Joyce, J.R. Yates, C.J. Pickard, F. Mauri|
 |   J. Chem. Phys. 127 204107 (2007)              |
 |                                                 |
 |   "Relativistic NMR J-coupling with ultrasoft   |
 |   pseudopotentials and the zeroth-order regular |
 |   approximation"                                |
 |   T.F.G. Green and J.R. Yates                   |
 |   J. Chem. Phys. 140 234106 (2014)              |
 |                                                 |
 +-------------------------------------------------+
 
 
 Atomic calculation performed for O: 1s2 2s2 2p4
 
 Converged in 44 iterations to an ae energy of -2040.855 eV
 
 
 Atomic calculation performed for O: 1s2 2s2 2p4
 
 Exceeded max iterations: converged to 0.000000062 eV
 
   ============================================================                
   | Pseudopotential Report - Date of generation 29-03-2022   |                
   ------------------------------------------------------------                
   | Element: O Ionic charge:  6.00 Level of theory: PBE      |                
   | Atomic Solver: ZORA (scalar)                             |                
   |                                                          |                
   |               Reference Electronic Structure             |                
   |         Orbital         Occupation         Energy        |                
   |            2s              2.000           -0.881        |                
   |            2p              4.000           -0.332        |                
   |                                                          |                
   |                 Pseudopotential Definition               |                
   |        Beta     l      e      Rc     scheme   norm       |                
   |          1      0   -0.881   1.100     qc      0         |                
   |          2      0    0.250   1.100     qc      0         |                
   |          3      1   -0.332   1.100     qc      0         |                
   |          4      1    0.250   1.100     qc      0         |                
   |         loc     2    0.000   1.100     pn      0         |                
   |                                                          |                
   | Augmentation charge Rinner = 0.769                       |                
   | Partial core correction Rc = 0.769                       |                
   ------------------------------------------------------------                
   | "2|1.1|15|18|20|20:21(qc=7)"                             |                
   ------------------------------------------------------------                
   |      Author: Chris J. Pickard, Cambridge University      |                
   ============================================================                
 
 Atomic calculation performed for Zr: 1s2 2s2 2p6 3s2 3p6 3d10 4s2 4p6 4d2 5s2
 
 Converged in 52 iterations to an ae energy of -97719.888 eV
 
 
 Atomic calculation performed for Zr: 1s2 2s2 2p6 3s2 3p6 3d10 4s2 4p6 4d2 5s2
 
 Exceeded max iterations: converged to 0.000000936 eV
 
 Warning: ion_atom_descreen_psp: negative charge density encountered
   ============================================================                
   | Pseudopotential Report - Date of generation 29-03-2022   |                
   ------------------------------------------------------------                
   | Element: Zr Ionic charge: 12.00 Level of theory: PBE     |                
   | Atomic Solver: ZORA (scalar)                             |                
   |                                                          |                
   |               Reference Electronic Structure             |                
   |         Orbital         Occupation         Energy        |                
   |            4s              2.000           -2.003        |                
   |            4p              6.000           -1.193        |                
   |            5s              2.000           -0.163        |                
   |            4d              2.000           -0.132        |                
   |                                                          |                
   |                 Pseudopotential Definition               |                
   |        Beta     l      e      Rc     scheme   norm       |                
   |          1      0   -2.003   2.105     qc      0         |                
   |          2      0   -0.163   2.105     qc      0         |                
   |          3      0    0.250   2.105     qc      0         |                
   |          4      1   -1.193   2.105     qc      0         |                
   |          5      1    0.250   2.105     qc      0         |                
   |          6      2   -0.132   2.105     qc      0         |                
   |          7      2    0.250   2.105     qc      0         |                
   |         loc     3    0.000   2.105     pn      0         |                
   |                                                          |                
   | Augmentation charge Rinner = 1.471                       |                
   | Partial core correction Rc = 1.471                       |                
   ------------------------------------------------------------                
   | "3|2.1|7|8|9|40U:50:41:42"                               |                
   ------------------------------------------------------------                
   |      Author: Chris J. Pickard, Cambridge University      |                
   ============================================================                
 
 Atomic calculation performed for Sn:
 1s2 2s2 2p6 3s2 3p6 3d10 4s2 4p6 4d10 5s2 5p2
 
 Converged in 58 iterations to an ae energy of -167539.320 eV
 
 
 Atomic calculation performed for Sn:
 1s2 2s2 2p6 3s2 3p6 3d10 4s2 4p6 4d10 5s2 5p2
 
 Exceeded max iterations: converged to -0.000000491 eV
 
   ============================================================                
   | Pseudopotential Report - Date of generation 29-03-2022   |                
   ------------------------------------------------------------                
   | Element: Sn Ionic charge: 14.00 Level of theory: PBE     |                
   | Atomic Solver: ZORA (scalar)                             |                
   |                                                          |                
   |               Reference Electronic Structure             |                
   |         Orbital         Occupation         Energy        |                
   |            4d             10.000           -0.950        |                
   |            5s              2.000           -0.388        |                
   |            5p              2.000           -0.136        |                
   |                                                          |                
   |                 Pseudopotential Definition               |                
   |        Beta     l      e      Rc     scheme   norm       |                
   |          1      0   -0.388   2.199     qc      0         |                
   |          2      0    0.250   2.199     qc      0         |                
   |          3      1   -0.136   2.199     qc      0         |                
   |          4      1    0.250   2.199     qc      0         |                
   |          5      2   -0.950   2.199     qc      0         |                
   |          6      2    0.250   2.199     qc      0         |                
   |         loc     3    0.000   2.199     pn      0         |                
   |                                                          |                
   | Augmentation charge Rinner = 1.537                       |                
   | Partial core correction Rc = 1.537                       |                
   ------------------------------------------------------------                
   | "3|2.2|7|8|9|50:51:42"                                   |                
   ------------------------------------------------------------                
   |      Author: Chris J. Pickard, Cambridge University      |                
   ============================================================                
 
 Atomic calculation performed for La:
 1s2 2s2 2p6 3s2 3p6 3d10 4s2 4p6 4d10 5s2 5p6 5d1 6s2
 
 Converged in 55 iterations to an ae energy of -230121.495 eV
 
 
 Atomic calculation performed for La:
 1s2 2s2 2p6 3s2 3p6 3d10 4s2 4p6 4d10 5s2 5p6 5d1 6s2
 
 Exceeded max iterations: converged to 0.000001134 eV
 
 Warning: ion_atom_descreen_psp: negative charge density encountered
   ============================================================                
   | Pseudopotential Report - Date of generation 29-03-2022   |                
   ------------------------------------------------------------                
   | Element: La Ionic charge: 11.00 Level of theory: PBE     |                
   | Atomic Solver: ZORA (scalar)                             |                
   |                                                          |                
   |               Reference Electronic Structure             |                
   |         Orbital         Occupation         Energy        |                
   |            5s              2.000           -1.430        |                
   |            5p              6.000           -0.823        |                
   |            6s              2.000           -0.135        |                
   |            5d              1.000           -0.114        |                
   |                                                          |                
   |                 Pseudopotential Definition               |                
   |        Beta     l      e      Rc     scheme   norm       |                
   |          1      0   -1.430   2.298     qc      0         |                
   |          2      0   -0.135   2.298     qc      0         |                
   |          3      0    0.250   2.298     qc      0         |                
   |          4      1   -0.823   2.298     qc      0         |                
   |          5      1    0.250   2.298     qc      0         |                
   |          6      2   -0.114   2.298     qc      0         |                
   |          7      2    0.250   2.298     qc      0         |                
   |         loc     2    0.000   2.298     pn      0         |                
   |                                                          |                
   | Augmentation charge Rinner = 1.606                       |                
   | Partial core correction Rc = 1.606                       |                
   ------------------------------------------------------------                
   | "2|2.3|5|6|7|50U:60:51:52(qc=4.5)"                       |                
   ------------------------------------------------------------                
   |      Author: Chris J. Pickard, Cambridge University      |                
   ============================================================                
 
 Pseudo atomic calculation performed for O 2s2 2p4
 
 Converged in 39 iterations to a total energy of -432.6554 eV
 
 
 Pseudo atomic calculation performed for Zr 4s2 4p6 4d2 5s2
 
 Converged in 38 iterations to a total energy of -1285.4931 eV
 
 
 Pseudo atomic calculation performed for Sn 4d10 5s2 5p2
 
 Converged in 48 iterations to a total energy of -2044.5413 eV
 
 
 Pseudo atomic calculation performed for La 5s2 5p6 5d1 6s2
 
 Converged in 34 iterations to a total energy of -968.0373 eV
 
 Calculation parallelised over 896 processes.
 Data is distributed by G-vector(64-way) and k-point(14-way)

 ************************************ Title ************************************
 nmr testing

 ***************************** General Parameters ******************************
  
 output verbosity                               : normal  (1)
 write checkpoint data to                       : 28.check
 type of calculation                            : Magnetic Resonance
 stress calculation                             : on
 density difference calculation                 : off
 electron localisation func (ELF) calculation   : off
 Hirshfeld analysis                             : off
 unlimited duration calculation
 timing information                             : on
 memory usage estimate                          : on
 write final potential to formatted file        : off
 write final density to formatted file          : off
 write BibTeX reference list                    : off
 write OTFG pseudopotential files               : on
 checkpoint writing                             : off
  
 output         length unit                     : A
 output           mass unit                     : amu
 output           time unit                     : ps
 output         charge unit                     : e
 output           spin unit                     : hbar/2
 output         energy unit                     : eV
 output          force unit                     : eV/A
 output       velocity unit                     : A/ps
 output       pressure unit                     : GPa
 output     inv_length unit                     : 1/A
 output      frequency unit                     : cm-1
 output force constant unit                     : eV/A**2
 output         volume unit                     : A**3
 output   IR intensity unit                     : (D/A)**2/amu
 output         dipole unit                     : D
 output         efield unit                     : eV/A/e
 output        entropy unit                     : J/mol/K
  
 wavefunctions paging                           : none
 random number generator seed                   : randomised (235859135)
 data distribution                              : optimal for this architecture
 optimization strategy                          : maximize speed(+++)

 *********************** Exchange-Correlation Parameters ***********************
  
 using functional                               : Perdew Burke Ernzerhof
 relativistic treatment                         : ZORA
 DFT+D: Semi-empirical dispersion correction    : off

 ************************* Pseudopotential Parameters **************************
  
 pseudopotential representation                 : reciprocal space
 <beta|phi> representation                      : reciprocal space
 spin-orbit coupling                            : off

 **************************** Basis Set Parameters *****************************
  
 plane wave basis set cut-off                   :   816.3416   eV
 size of standard grid                          :     1.7500
 size of   fine   gmax                          :    25.6161   1/A
 finite basis set correction                    : automatic
 number of sample energies                      :          3
           sample  spacing                      :     5.0000   eV

 **************************** Electronic Parameters ****************************
  
 number of  electrons                           :  726.0    
 net charge of system                           :  0.000    
 treating system as non-spin-polarized
 number of bands                                :        436

 ********************* Electronic Minimization Parameters **********************
  
 Method: Treating system as metallic with density mixing treatment of electrons,
         and number of  SD  steps               :          1
         and number of  CG  steps               :          4
  
 total energy / atom convergence tol.           : 0.1000E-08   eV
 eigen-energy convergence tolerance             : 0.2424E-09   eV
 max force / atom convergence tol.              : ignored
 convergence tolerance window                   :          3   cycles
 max. number of SCF cycles                      :        250
 number of fixed-spin iterations                :         10
 smearing scheme                                : Gaussian
 smearing width                                 : 0.2000       eV
 Fermi energy convergence tolerance             : 0.2721E-13   eV
 periodic dipole correction                     : NONE

 ************************** Density Mixing Parameters **************************
  
 density-mixing scheme                          : Broyden
 max. length of mixing history                  :         20
 charge density mixing amplitude                : 0.8000    
 cut-off energy for mixing                      :  816.3       eV

 *********************** Population Analysis Parameters ************************
  
 Population analysis with cutoff                :  3.000       A

 ************************ Magnetic Resonance Parameters ************************
  
 Magnetic Resonance Property                    : Chemical Shielding + EFG
 Position Operator Method                       : crystal
 max. number of MagRes CG steps                 :        250
 convergence tolerance window                   :          2   cycles
 energy convergence tolerance                   : 0.1000E-11   eV
 band convergence tolerance                     : 0.1000E-08   eV

 *******************************************************************************
  
 
                           -------------------------------
                                      Unit Cell
                           -------------------------------
        Real Lattice(A)                      Reciprocal Lattice(1/A)
  10.8936073   0.0024865   0.0024865        0.5767774  -0.0001305  -0.0001305
   0.0024651  10.8909522   0.0020693       -0.0001317   0.5769180  -0.0001096
   0.0024651   0.0020693  10.8909522       -0.0001317  -0.0001096   0.5769180
 
                       Lattice parameters(A)       Cell Angles
                    a =   10.893608          alpha =   89.978224
                    b =   10.890953          beta  =   89.973951
                    c =   10.890953          gamma =   89.973951
 
                       Current cell volume = 1292.121513       A**3
 
                           -------------------------------
                                     Cell Contents
                           -------------------------------
                         Total number of ions in cell =   88
                      Total number of species in cell =    4
                        Max number of any one species =   56
 
            xxxxxxxxxxxxxxxxxxxxxxxxxxxxxxxxxxxxxxxxxxxxxxxxxxxxxxxxxxxx
            x  Element    Atom        Fractional coordinates of atoms  x
            x            Number           u          v          w      x
            x----------------------------------------------------------x
            x  O            1         0.125372   0.124797   0.124797   x 
            x  O            2         0.624728   0.125050   0.624999   x 
            x  O            3         0.125247   0.625137   0.625137   x 
            x  O            4         0.624728   0.624999   0.125050   x 
            x  O            5         0.874706   0.375035   0.375035   x 
            x  O            6         0.875159   0.875054   0.875054   x 
            x  O            7         0.375096   0.374925   0.875036   x 
            x  O            8         0.375096   0.875036   0.374925   x 
            x  O            9         0.420335   0.125122   0.125122   x 
            x  O           10         0.329626   0.125343   0.624160   x 
            x  O           11         0.830305   0.624954   0.624954   x 
            x  O           12         0.919571   0.625101   0.124887   x 
            x  O           13         0.124666   0.419666   0.124739   x 
            x  O           14         0.625666   0.329456   0.123537   x 
            x  O           15         0.625374   0.830261   0.624309   x 
            x  O           16         0.124244   0.920415   0.623627   x 
            x  O           17         0.124666   0.124739   0.419666   x 
            x  O           18         0.124642   0.625228   0.330240   x 
            x  O           19         0.625374   0.624309   0.830261   x 
            x  O           20         0.626224   0.125980   0.920626   x 
            x  O           21         0.875341   0.669634   0.375095   x 
            x  O           22         0.874661   0.580540   0.875176   x 
            x  O           23         0.375065   0.079716   0.874708   x 
            x  O           24         0.374175   0.170520   0.375850   x 
            x  O           25         0.170115   0.374997   0.374997   x 
            x  O           26         0.080691   0.875088   0.374995   x 
            x  O           27         0.578984   0.873976   0.873976   x 
            x  O           28         0.669436   0.375484   0.875031   x 
            x  O           29         0.875472   0.375006   0.080402   x 
            x  O           30         0.374175   0.375850   0.170520   x 
            x  O           31         0.376157   0.874511   0.670831   x 
            x  O           32         0.874661   0.875176   0.580540   x 
            x  O           33         0.669436   0.875031   0.375484   x 
            x  O           34         0.080691   0.374995   0.875088   x 
            x  O           35         0.376157   0.670831   0.874511   x 
            x  O           36         0.875472   0.080402   0.375006   x 
            x  O           37         0.875341   0.375095   0.669634   x 
            x  O           38         0.375065   0.874708   0.079716   x 
            x  O           39         0.124642   0.330240   0.625228   x 
            x  O           40         0.626224   0.920626   0.125980   x 
            x  O           41         0.919571   0.124887   0.625101   x 
            x  O           42         0.329626   0.624160   0.125343   x 
            x  O           43         0.124244   0.623627   0.920415   x 
            x  O           44         0.625666   0.123537   0.329456   x 
            x  O           45         0.420463   0.625398   0.625398   x 
            x  O           46         0.830143   0.124948   0.124948   x 
            x  O           47         0.123970   0.126194   0.829726   x 
            x  O           48         0.625618   0.626272   0.420250   x 
            x  O           49         0.875129   0.169568   0.874957   x 
            x  O           50         0.374080   0.579517   0.374461   x 
            x  O           51         0.170367   0.875107   0.875107   x 
            x  O           52         0.579537   0.375070   0.375070   x 
            x  O           53         0.875129   0.874957   0.169568   x 
            x  O           54         0.374080   0.374461   0.579517   x 
            x  O           55         0.123970   0.829726   0.126194   x 
            x  O           56         0.625618   0.420250   0.626272   x 
            x  Zr           1         0.500053   0.500117   0.500117   x 
            x  Zr           2         0.249541   0.749223   0.000422   x 
            x  Zr           3         0.249541   0.000422   0.749223   x 
            x  Zr           4         0.500277   0.000204   0.000204   x 
            x  Zr           5         0.499889   0.249795   0.249795   x 
            x  Sn           1         0.750998  -0.000933   0.250919   x 
            x  Sn           2        -0.000402   0.250451   0.750433   x 
            x  Sn           3         0.750998   0.250919  -0.000933   x 
            x  Sn           4        -0.000402   0.750433   0.250451   x 
            x  Sn           5         0.249266   0.249496   0.500451   x 
            x  Sn           6         0.750444   0.499616   0.750529   x 
            x  Sn           7         0.750444   0.750529   0.499616   x 
            x  Sn           8         0.249266   0.500451   0.249496   x 
            x  Sn           9        -0.000469   0.499532  -0.000371   x 
            x  Sn          10         0.501311   0.748907   0.748907   x 
            x  Sn          11        -0.000469  -0.000371   0.499532   x 
            x  La           1         0.000444  -0.000084  -0.000084   x 
            x  La           2         0.749465   0.250113   0.499879   x 
            x  La           3         0.250468   0.500171   0.750058   x 
            x  La           4         0.499690   0.750039   0.249868   x 
            x  La           5         0.250468   0.750058   0.500171   x 
            x  La           6         0.749465   0.499879   0.250113   x 
            x  La           7         0.499690   0.249868   0.750039   x 
            x  La           8         0.000103   0.500021   0.500021   x 
            x  La           9         0.749638   0.750268   0.000056   x 
            x  La          10         0.250408   0.000013   0.249746   x 
            x  La          11         0.250408   0.249746   0.000013   x 
            x  La          12         0.749638   0.000056   0.750268   x 
            x  La          13         0.499641   0.000189   0.500022   x 
            x  La          14         0.000422   0.750239   0.750239   x 
            x  La          15         0.000129   0.249899   0.249899   x 
            x  La          16         0.499641   0.500022   0.000189   x 
            xxxxxxxxxxxxxxxxxxxxxxxxxxxxxxxxxxxxxxxxxxxxxxxxxxxxxxxxxxxx
 
 
                         No user defined ionic velocities
 
                           -------------------------------
                                   Details of Species
                           -------------------------------
 
                               Mass of species in AMU
                                    O   15.9994000
                                    Zr   91.2240000
                                    Sn  118.7100000
                                    La  138.9055000
 
                          Electric Quadrupole Moment (Barn)
                                    O   -0.0255800 Isotope 17
                                    Zr   -0.1760000 Isotope 91
                                    Sn    1.0000000 No Isotope Defined
                                    La    0.2000000 Isotope139
 
                          Files used for pseudopotentials:
                                    O 2|1.1|15|18|20|20:21(qc=7)
                                    Zr 3|2.1|7|8|9|40U:50:41:42
                                    Sn 3|2.2|7|8|9|50:51:42
                                    La 2|2.3|5|6|7|50U:60:51:52(qc=4.5)
 
                           -------------------------------
                              k-Points For BZ Sampling
                           -------------------------------
                       MP grid size for SCF calculation is  3  3  3
                            with an offset of   0.000  0.000  0.000
                       Number of kpoints used =   14
 
                           -------------------------------
                               Symmetry and Constraints
                           -------------------------------
 
                      Maximum deviation from symmetry =  0.00000         ANG
 
         There are no symmetry operations specified or generated for this cell
                      Number of ionic constraints     = 3
                      Point group of crystal =     1: C1, 1, 1
                      Space group of crystal =     8: Cm, C -2y
 
 
                         Centre of mass is constrained
             Set iprint > 1 for details of linear ionic constraints
 
                         Number of cell constraints= 0
                         Cell constraints are:  1 2 3 4 5 6
 
                         External pressure/stress (GPa)
                          0.00000   0.00000   0.00000
                                    0.00000   0.00000
                                              0.00000
  
+---------------- MEMORY AND SCRATCH DISK ESTIMATES PER PROCESS --------------+
|                                                     Memory          Disk    |
| Baseline code, static data and system overhead      843.0 MB         0.0 MB |
| BLAS internal memory storage                          0.0 MB         0.0 MB |
| Model and support data                              149.3 MB         0.0 MB |
| Electronic energy minimisation requirements          28.5 MB         0.0 MB |
| Force calculation requirements                        1.5 MB         0.0 MB |
| Stress calculation requirements                       1.8 MB         0.0 MB |
|                                               ----------------------------- |
| Approx. total storage required per process         1020.8 MB         0.0 MB |
|                                                                             |
| Requirements will fluctuate during execution and may exceed these estimates |
+-----------------------------------------------------------------------------+
Calculating finite basis set correction with  3 cut-off energies.
Calculating total energy with cut-off of  806.342eV.
------------------------------------------------------------------------ <-- SCF
SCF loop      Energy           Fermi           Energy gain       Timer   <-- SCF
                               energy          per atom          (sec)   <-- SCF
------------------------------------------------------------------------ <-- SCF
Initial  -5.90758724E+004  0.00000000E+000                        34.76  <-- SCF
      1  -6.67903853E+004  7.33619164E+000   8.76649199E+001      45.55  <-- SCF
      2  -6.93326769E+004  6.21887798E+000   2.88896766E+001      52.90  <-- SCF
      3  -6.94180375E+004  6.02771916E+000   9.70006729E-001      61.04  <-- SCF
      4  -6.94087478E+004  7.47746806E+000  -1.05563724E-001      70.47  <-- SCF
      5  -6.93129024E+004  6.59842546E+000  -1.08915314E+000      79.74  <-- SCF
      6  -6.93139737E+004  6.48244248E+000   1.21740035E-002      92.16  <-- SCF
      7  -6.93135787E+004  6.56581422E+000  -4.48791825E-003     102.24  <-- SCF
      8  -6.93136882E+004  6.56965690E+000   1.24432182E-003     116.23  <-- SCF
      9  -6.93137121E+004  6.57091191E+000   2.71213932E-004     127.39  <-- SCF
     10  -6.93137110E+004  6.56984506E+000  -1.23113011E-005     137.71  <-- SCF
     11  -6.93137111E+004  6.57103852E+000   6.39973899E-007     148.23  <-- SCF
     12  -6.93137113E+004  6.57113864E+000   2.38475629E-006     159.10  <-- SCF
     13  -6.93137113E+004  6.57088176E+000  -3.80947207E-008     168.97  <-- SCF
     14  -6.93137113E+004  6.57072505E+000  -3.83931383E-007     178.88  <-- SCF
     15  -6.93137112E+004  6.57043195E+000  -9.29283610E-008     189.76  <-- SCF
     16  -6.93137112E+004  6.57026284E+000  -4.48301394E-009     199.01  <-- SCF
     17  -6.93137112E+004  6.57021520E+000  -9.67459748E-009     207.67  <-- SCF
     18  -6.93137112E+004  6.57015830E+000   8.67607541E-010     214.92  <-- SCF
     19  -6.93137112E+004  6.57013250E+000   4.58833615E-010     221.26  <-- SCF
     20  -6.93137112E+004  6.57013275E+000   5.06221580E-011     227.53  <-- SCF
------------------------------------------------------------------------ <-- SCF
 
Final energy, E             =  -69313.71124693     eV
Final free energy (E-TS)    =  -69313.71124693     eV
(energies not corrected for finite basis set)
 
NB est. 0K energy (E-0.5TS)      =  -69313.71124693     eV
 
Calculating total energy with cut-off of  811.342eV.
------------------------------------------------------------------------ <-- SCF
SCF loop      Energy           Fermi           Energy gain       Timer   <-- SCF
                               energy          per atom          (sec)   <-- SCF
------------------------------------------------------------------------ <-- SCF
Initial  -6.93137112E+004  0.00000000E+000                       229.65  <-- SCF
      1  -6.93137138E+004  6.57013062E+000   2.90112189E-005     238.19  <-- SCF
      2  -6.93137138E+004  6.57013062E+000   1.87301985E-010     244.43  <-- SCF
      3  -6.93137138E+004  6.57012486E+000   1.71365848E-008     250.70  <-- SCF
      4  -6.93137138E+004  6.57013270E+000   5.79201858E-010     256.95  <-- SCF
      5  -6.93137138E+004  6.57012964E+000  -6.38401659E-011     263.18  <-- SCF
------------------------------------------------------------------------ <-- SCF
 
Final energy, E             =  -69313.71380148     eV
Final free energy (E-TS)    =  -69313.71380148     eV
(energies not corrected for finite basis set)
 
NB est. 0K energy (E-0.5TS)      =  -69313.71380148     eV
 
Calculating total energy with cut-off of  816.342eV.
------------------------------------------------------------------------ <-- SCF
SCF loop      Energy           Fermi           Energy gain       Timer   <-- SCF
                               energy          per atom          (sec)   <-- SCF
------------------------------------------------------------------------ <-- SCF
Initial  -6.93137138E+004  0.00000000E+000                       265.32  <-- SCF
      1  -6.93137167E+004  6.57012944E+000   3.34752182E-005     273.95  <-- SCF
      2  -6.93137167E+004  6.57012944E+000   2.00801227E-010     280.31  <-- SCF
      3  -6.93137167E+004  6.57012373E+000   2.01411505E-008     286.65  <-- SCF
      4  -6.93137167E+004  6.57012968E+000   6.47260537E-010     293.01  <-- SCF
      5  -6.93137167E+004  6.57012581E+000  -5.62468422E-012     299.30  <-- SCF
------------------------------------------------------------------------ <-- SCF
 
Final energy, E             =  -69313.71674915     eV
Final free energy (E-TS)    =  -69313.71674915     eV
(energies not corrected for finite basis set)
 
NB est. 0K energy (E-0.5TS)      =  -69313.71674915     eV
 
 For future reference: finite basis dEtot/dlog(Ecut) =      -0.442072eV
 Total energy corrected for finite basis set =  -69313.716763 eV
 
  =====================================================================
  +       Calculation of Nuclear Magnetic Resonance Parameters        +
  + ================================================================= +
 
  Starting Calculation of Electric Field Gradient Tensors         |<-- EFG
  +---------------- MEMORY AND SCRATCH DISK ESTIMATES PER PROCESS --------------+
  |                                                     Memory          Disk    |
  | Model and support data                              151.1 MB         0.0 MB |
  | NMR EFG calculation requirements                     27.6 MB         0.0 MB |
  |                                               ----------------------------- |
  | Approx. total storage required per process          178.6 MB         0.0 MB |
  |                                                                             |
  | Requirements will fluctuate during execution and may exceed these estimates |
  +-----------------------------------------------------------------------------+
  Total Time for EFG Tensors                      31.67 sec       |<-- EFG
 
  Starting Calculation of Chemical Shielding Tensors              |<-- NMR
  +---------------- MEMORY AND SCRATCH DISK ESTIMATES PER PROCESS --------------+
  |                                                     Memory          Disk    |
  | Model and support data                              151.1 MB         0.0 MB |
  | NMR chemical shift calculation requirements          91.3 MB         0.0 MB |
  |                                               ----------------------------- |
  | Approx. total storage required per process          242.3 MB         0.0 MB |
  |                                                                             |
  | Requirements will fluctuate during execution and may exceed these estimates |
  +-----------------------------------------------------------------------------+
  Starting k-point:   1 of   1                                    |<-- NMR
  Total Time for step 1 of 6:                    270.62 sec       |<-- NMR
  Total Time for step 2 of 6:                    273.11 sec       |<-- NMR
  Total Time for step 3 of 6:                    272.60 sec       |<-- NMR
  Total Time for step 4 of 6:                    271.19 sec       |<-- NMR
  Total Time for step 5 of 6:                    273.03 sec       |<-- NMR
  Total Time for step 6 of 6:                    273.53 sec       |<-- NMR
  Total Time for Chemical Shielding Tensors     2437.47 sec       |<-- NMR
 
  ========================================================================
  |           Chemical Shielding and Electric Field Gradient Tensors     |
  |----------------------------------------------------------------------|
  |     Nucleus                Shielding tensor             EFG Tensor   |
  |  Species       Ion    Iso(ppm)   Aniso(ppm)  Asym    Cq(MHz)    Eta  |
  |    O           1     -320.85      -5.42      0.17  -6.042E-02   0.48 |
  |    O           2     -320.01       7.16      0.82  -5.608E-02   0.81 |
  |    O           3     -319.59      -8.56      0.29   4.015E-02   0.90 |
  |    O           4     -320.01       7.15      0.82  -5.608E-02   0.81 |
  |    O           5     -319.01     -15.44      0.31  -2.548E-02   0.33 |
  |    O           6     -318.38       9.38      0.87  -4.320E-02   0.01 |
  |    O           7     -317.97      -7.78      0.76  -3.951E-02   0.64 |
  |    O           8     -317.97      -7.78      0.76  -3.951E-02   0.64 |
  |    O           9     -162.39     156.66      0.81   1.061E+00   0.76 |
  |    O          10      -91.18      97.17      0.23  -3.194E+00   0.09 |
  |    O          11       -7.21     -58.11      0.85   3.766E+00   0.98 |
  |    O          12       -9.37     -56.81      0.87   3.753E+00   0.97 |
  |    O          13       -8.34      60.38      0.81   3.809E+00   0.94 |
  |    O          14      -84.96      86.57      0.25  -3.207E+00   0.07 |
  |    O          15       -9.81      59.28      0.55   3.857E+00   0.88 |
  |    O          16      -87.21      89.08      0.13  -3.203E+00   0.06 |
  |    O          17       -8.34      60.38      0.81   3.809E+00   0.94 |
  |    O          18       -6.91      58.34      0.81   3.828E+00   0.94 |
  |    O          19       -9.81      59.29      0.55   3.857E+00   0.88 |
  |    O          20      -84.93      87.22      0.10  -3.173E+00   0.07 |
  |    O          21      -15.45     -42.72      0.58   3.848E+00   0.94 |
  |    O          22      -16.22     -42.97      0.63   3.831E+00   0.93 |
  |    O          23     -160.53     151.03      0.79   1.022E+00   0.71 |
  |    O          24      -86.70      86.52      0.36  -3.196E+00   0.10 |
  |    O          25        6.90     -71.13      0.88  -3.774E+00   1.00 |
  |    O          26      -20.65     -39.34      0.85   3.860E+00   0.88 |
  |    O          27      -78.03      84.55      0.27  -3.151E+00   0.04 |
  |    O          28      -21.74      38.82      0.73   3.908E+00   0.84 |
  |    O          29      -13.69     -43.64      0.60   3.847E+00   0.93 |
  |    O          30      -86.70      86.52      0.36  -3.196E+00   0.10 |
  |    O          31      -84.10      83.63      0.25  -3.128E+00   0.07 |
  |    O          32      -16.22     -42.97      0.63   3.831E+00   0.93 |
  |    O          33      -21.74      38.82      0.73   3.908E+00   0.84 |
  |    O          34      -20.65     -39.34      0.85   3.860E+00   0.88 |
  |    O          35      -84.10      83.63      0.25  -3.128E+00   0.07 |
  |    O          36      -13.69     -43.65      0.60   3.847E+00   0.93 |
  |    O          37      -15.45     -42.73      0.58   3.848E+00   0.94 |
  |    O          38     -160.53     151.04      0.79   1.022E+00   0.71 |
  |    O          39       -6.91      58.34      0.81   3.828E+00   0.94 |
  |    O          40      -84.93      87.21      0.10  -3.173E+00   0.07 |
  |    O          41       -9.37     -56.81      0.87   3.753E+00   0.97 |
  |    O          42      -91.18      97.16      0.23  -3.194E+00   0.09 |
  |    O          43      -87.21      89.08      0.13  -3.203E+00   0.06 |
  |    O          44      -84.96      86.56      0.25  -3.207E+00   0.07 |
  |    O          45      -88.22      93.85      0.29  -3.184E+00   0.07 |
  |    O          46       -0.13     -69.60      0.84   3.736E+00   1.00 |
  |    O          47      -88.21      77.58      0.07  -3.263E+00   0.09 |
  |    O          48      -88.23      85.35      0.20  -3.200E+00   0.07 |
  |    O          49      -16.59     -38.20      0.89   3.889E+00   0.89 |
  |    O          50      -86.75      85.65      0.29  -3.147E+00   0.07 |
  |    O          51     -159.55     150.82      0.78   1.069E+00   0.58 |
  |    O          52     -159.47     150.60      0.83   1.100E+00   0.58 |
  |    O          53      -16.59     -38.20      0.89   3.889E+00   0.89 |
  |    O          54      -86.75      85.66      0.29  -3.147E+00   0.07 |
  |    O          55      -88.21      77.58      0.07  -3.263E+00   0.09 |
  |    O          56      -88.23      85.34      0.20  -3.200E+00   0.07 |
  |    Zr          1     1609.88    -113.85      0.02  -3.503E+01   0.16 |
  |    Zr          2     1615.57    -116.12      0.17  -3.608E+01   0.12 |
  |    Zr          3     1615.57    -116.13      0.17  -3.608E+01   0.12 |
  |    Zr          4     1631.19    -121.94      0.23  -3.633E+01   0.01 |
  |    Zr          5     1624.81    -122.79      0.10  -3.579E+01   0.23 |
  |    Sn          1     3245.76     -62.08      0.17   1.207E+02   0.15 |
  |    Sn          2     3244.31     -65.31      0.16   1.183E+02   0.22 |
  |    Sn          3     3245.76     -62.07      0.17   1.207E+02   0.15 |
  |    Sn          4     3244.31     -65.31      0.16   1.183E+02   0.22 |
  |    Sn          5     3255.85     -59.47      0.40   1.234E+02   0.06 |
  |    Sn          6     3244.07     -62.78      0.28   1.177E+02   0.09 |
  |    Sn          7     3244.07     -62.77      0.28   1.177E+02   0.09 |
  |    Sn          8     3255.85     -59.48      0.40   1.234E+02   0.06 |
  |    Sn          9     3244.53     -63.59      0.20   1.177E+02   0.19 |
  |    Sn         10     3247.21     -43.95      0.42   1.261E+02   0.15 |
  |    Sn         11     3244.53     -63.59      0.20   1.177E+02   0.19 |
  |    La          1     4600.49     507.83      0.08  -7.902E+01   0.11 |
  |    La          2     4608.93     508.00      0.07  -8.070E+01   0.09 |
  |    La          3     4604.50     526.71      0.07  -7.986E+01   0.10 |
  |    La          4     4651.48     656.95      0.09  -8.253E+01   0.16 |
  |    La          5     4604.50     526.72      0.07  -7.986E+01   0.10 |
  |    La          6     4608.93     507.99      0.07  -8.070E+01   0.09 |
  |    La          7     4651.48     656.95      0.09  -8.253E+01   0.16 |
  |    La          8     4503.10     232.44      0.01  -7.311E+01   0.02 |
  |    La          9     4556.07     392.37      0.06  -7.669E+01   0.11 |
  |    La         10     4650.27     634.04      0.01  -8.216E+01   0.01 |
  |    La         11     4650.27     634.04      0.01  -8.216E+01   0.01 |
  |    La         12     4556.07     392.36      0.06  -7.669E+01   0.11 |
  |    La         13     4596.75     528.76      0.09  -7.833E+01   0.12 |
  |    La         14     4609.71     508.01      0.07  -8.070E+01   0.10 |
  |    La         15     4502.87     232.71      0.02  -7.338E+01   0.03 |
  |    La         16     4596.75     528.76      0.09  -7.833E+01   0.12 |
  ========================================================================
 
 *********************** Forces ***********************
 *                                                    *
 *            Cartesian components (eV/A)             *
 * -------------------------------------------------- *
 *                   x            y            z      *
 *                                                    *
 * O         1      0.02181      0.00120      0.00120 *
 * O         2     -0.02384     -0.00126      0.00468 *
 * O         3      0.02465      0.00368      0.00368 *
 * O         4     -0.02384      0.00468     -0.00126 *
 * O         5      0.00365     -0.00587     -0.00587 *
 * O         6     -0.01117      0.00733      0.00733 *
 * O         7      0.00250      0.00073      0.00783 *
 * O         8      0.00250      0.00783      0.00073 *
 * O         9     -0.00283      0.00193      0.00193 *
 * O        10     -0.02396     -0.00943     -0.00715 *
 * O        11      0.01974      0.00285      0.00285 *
 * O        12     -0.02158     -0.00080      0.00341 *
 * O        13     -0.00333     -0.01673      0.01356 *
 * O        14     -0.02241     -0.01187      0.00867 *
 * O        15      0.00291      0.00896      0.00155 *
 * O        16      0.02358      0.01381      0.00064 *
 * O        17     -0.00333      0.01356     -0.01673 *
 * O        18     -0.00092     -0.01146      0.01254 *
 * O        19      0.00291      0.00155      0.00896 *
 * O        20     -0.00566     -0.02293      0.00883 *
 * O        21      0.00910     -0.00338      0.00317 *
 * O        22     -0.00483      0.00929      0.00791 *
 * O        23      0.00684      0.00624     -0.01235 *
 * O        24      0.00526      0.01530     -0.01658 *
 * O        25     -0.03156     -0.00147     -0.00147 *
 * O        26      0.00478      0.00082     -0.00053 *
 * O        27     -0.00081      0.01195      0.01195 *
 * O        28      0.00793      0.00381      0.00974 *
 * O        29      0.00580     -0.00827      0.01168 *
 * O        30      0.00526     -0.01658      0.01530 *
 * O        31      0.00002      0.01809      0.00594 *
 * O        32     -0.00483      0.00791      0.00929 *
 * O        33      0.00793      0.00974      0.00381 *
 * O        34      0.00478     -0.00053      0.00082 *
 * O        35      0.00002      0.00594      0.01809 *
 * O        36      0.00580      0.01168     -0.00827 *
 * O        37      0.00910      0.00317     -0.00339 *
 * O        38      0.00684     -0.01235      0.00624 *
 * O        39     -0.00092      0.01254     -0.01147 *
 * O        40     -0.00566      0.00883     -0.02293 *
 * O        41     -0.02158      0.00341     -0.00080 *
 * O        42     -0.02396     -0.00715     -0.00943 *
 * O        43      0.02358      0.00064      0.01381 *
 * O        44     -0.02241      0.00867     -0.01187 *
 * O        45      0.01399     -0.00995     -0.00995 *
 * O        46      0.03442      0.00398      0.00398 *
 * O        47      0.01987     -0.01069     -0.02094 *
 * O        48     -0.02167     -0.00455      0.01120 *
 * O        49      0.00248      0.00260      0.00018 *
 * O        50     -0.00973     -0.00571      0.01194 *
 * O        51     -0.00148     -0.00225     -0.00225 *
 * O        52      0.00288     -0.01263     -0.01263 *
 * O        53      0.00248      0.00018      0.00260 *
 * O        54     -0.00973      0.01194     -0.00571 *
 * O        55      0.01987     -0.02094     -0.01069 *
 * O        56     -0.02167      0.01120     -0.00455 *
 * Zr        1      0.02706     -0.00586     -0.00586 *
 * Zr        2     -0.02008     -0.01549     -0.00627 *
 * Zr        3     -0.02008     -0.00627     -0.01549 *
 * Zr        4      0.00550     -0.00609     -0.00609 *
 * Zr        5      0.02021     -0.00215     -0.00215 *
 * Sn        1      0.02122     -0.02021      0.01680 *
 * Sn        2     -0.01402      0.01211      0.01039 *
 * Sn        3      0.02122      0.01680     -0.02021 *
 * Sn        4     -0.01402      0.01039      0.01211 *
 * Sn        5     -0.01956      0.00302      0.00564 *
 * Sn        6      0.01662     -0.01053      0.00764 *
 * Sn        7      0.01662      0.00764     -0.01053 *
 * Sn        8     -0.01956      0.00563      0.00302 *
 * Sn        9     -0.01829     -0.00456     -0.01734 *
 * Sn       10      0.02935     -0.01490     -0.01490 *
 * Sn       11     -0.01829     -0.01734     -0.00456 *
 * La        1     -0.01681     -0.01626     -0.01626 *
 * La        2      0.01429      0.01871     -0.00676 *
 * La        3     -0.02642      0.01304     -0.01761 *
 * La        4      0.01978     -0.00404     -0.00185 *
 * La        5     -0.02642     -0.01761      0.01304 *
 * La        6      0.01429     -0.00676      0.01871 *
 * La        7      0.01978     -0.00185     -0.00403 *
 * La        8     -0.01049      0.00219      0.00219 *
 * La        9      0.01909      0.00403     -0.00250 *
 * La       10     -0.01574     -0.00712     -0.00049 *
 * La       11     -0.01574     -0.00049     -0.00712 *
 * La       12      0.01909     -0.00250      0.00403 *
 * La       13      0.02188      0.00579      0.00691 *
 * La       14     -0.00843      0.00003      0.00003 *
 * La       15     -0.02348      0.01450      0.01450 *
 * La       16      0.02188      0.00691      0.00579 *
 *                                                    *
 ******************************************************
 
 ***************** Stress Tensor *****************
 *                                               *
 *          Cartesian components (GPa)           *
 * --------------------------------------------- *
 *             x             y             z     *
 *                                               *
 *  x     -0.001785      0.001756      0.001756  *
 *  y      0.001756      0.000037     -0.000330  *
 *  z      0.001756     -0.000330      0.000037  *
 *                                               *
 *  Pressure:    0.0006                          *
 *                                               *
 *************************************************
 
 Pseudo atomic calculation performed for O 2s2 2p4
 
 Converged in 39 iterations to a total energy of -432.6554 eV
 
 
 Pseudo atomic calculation performed for Zr 4s2 4p6 4d2 5s2
 
 Converged in 38 iterations to a total energy of -1285.4931 eV
 
 
 Pseudo atomic calculation performed for Sn 4d10 5s2 5p2
 
 Converged in 48 iterations to a total energy of -2044.5413 eV
 
 
 Pseudo atomic calculation performed for La 5s2 5p6 5d1 6s2
 
 Converged in 34 iterations to a total energy of -968.0373 eV
 
Charge spilling parameter for spin component 1 = 0.26%
 
     Atomic Populations (Mulliken)
     -----------------------------
Species   Ion     s      p      d      f     Total  Charge (e)
==============================================================
  O        1     1.87   5.00   0.00   0.00   6.87    -0.87
  O        2     1.87   5.00   0.00   0.00   6.87    -0.87
  O        3     1.87   5.00   0.00   0.00   6.87    -0.87
  O        4     1.87   5.00   0.00   0.00   6.87    -0.87
  O        5     1.87   5.00   0.00   0.00   6.87    -0.87
  O        6     1.87   5.00   0.00   0.00   6.87    -0.87
  O        7     1.87   5.00   0.00   0.00   6.87    -0.87
  O        8     1.87   5.00   0.00   0.00   6.87    -0.87
  O        9     1.86   4.95   0.00   0.00   6.80    -0.80
  O       10     1.87   4.99   0.00   0.00   6.86    -0.86
  O       11     1.88   5.03   0.00   0.00   6.91    -0.91
  O       12     1.88   5.03   0.00   0.00   6.91    -0.91
  O       13     1.88   5.03   0.00   0.00   6.91    -0.91
  O       14     1.87   4.99   0.00   0.00   6.86    -0.86
  O       15     1.88   5.03   0.00   0.00   6.91    -0.91
  O       16     1.87   4.99   0.00   0.00   6.86    -0.86
  O       17     1.88   5.03   0.00   0.00   6.91    -0.91
  O       18     1.88   5.03   0.00   0.00   6.91    -0.91
  O       19     1.88   5.03   0.00   0.00   6.91    -0.91
  O       20     1.87   4.99   0.00   0.00   6.86    -0.86
  O       21     1.88   5.03   0.00   0.00   6.91    -0.91
  O       22     1.88   5.03   0.00   0.00   6.91    -0.91
  O       23     1.86   4.95   0.00   0.00   6.80    -0.80
  O       24     1.87   4.99   0.00   0.00   6.86    -0.86
  O       25     1.88   5.03   0.00   0.00   6.91    -0.91
  O       26     1.88   5.03   0.00   0.00   6.91    -0.91
  O       27     1.87   4.99   0.00   0.00   6.86    -0.86
  O       28     1.88   5.03   0.00   0.00   6.91    -0.91
  O       29     1.88   5.03   0.00   0.00   6.91    -0.91
  O       30     1.87   4.99   0.00   0.00   6.86    -0.86
  O       31     1.87   4.99   0.00   0.00   6.86    -0.86
  O       32     1.88   5.03   0.00   0.00   6.91    -0.91
  O       33     1.88   5.03   0.00   0.00   6.91    -0.91
  O       34     1.88   5.03   0.00   0.00   6.91    -0.91
  O       35     1.87   4.99   0.00   0.00   6.86    -0.86
  O       36     1.88   5.03   0.00   0.00   6.91    -0.91
  O       37     1.88   5.03   0.00   0.00   6.91    -0.91
  O       38     1.86   4.95   0.00   0.00   6.80    -0.80
  O       39     1.88   5.03   0.00   0.00   6.91    -0.91
  O       40     1.87   4.99   0.00   0.00   6.86    -0.86
  O       41     1.88   5.03   0.00   0.00   6.91    -0.91
  O       42     1.87   4.99   0.00   0.00   6.86    -0.86
  O       43     1.87   4.99   0.00   0.00   6.86    -0.86
  O       44     1.87   4.99   0.00   0.00   6.86    -0.86
  O       45     1.87   4.99   0.00   0.00   6.86    -0.86
  O       46     1.88   5.03   0.00   0.00   6.91    -0.91
  O       47     1.87   4.99   0.00   0.00   6.86    -0.86
  O       48     1.87   4.99   0.00   0.00   6.86    -0.86
  O       49     1.88   5.03   0.00   0.00   6.91    -0.91
  O       50     1.87   4.99   0.00   0.00   6.86    -0.86
  O       51     1.86   4.95   0.00   0.00   6.80    -0.80
  O       52     1.86   4.95   0.00   0.00   6.80    -0.80
  O       53     1.88   5.03   0.00   0.00   6.91    -0.91
  O       54     1.87   4.99   0.00   0.00   6.86    -0.86
  O       55     1.87   4.99   0.00   0.00   6.86    -0.86
  O       56     1.87   4.99   0.00   0.00   6.86    -0.86
  Zr       1     2.37   6.49   1.92   0.00  10.77     1.23
  Zr       2     2.37   6.48   1.92   0.00  10.77     1.23
  Zr       3     2.37   6.48   1.92   0.00  10.77     1.23
  Zr       4     2.36   6.47   1.92   0.00  10.76     1.24
  Zr       5     2.37   6.48   1.92   0.00  10.77     1.23
  Sn       1     1.04   1.31  10.00   0.00  12.35     1.65
  Sn       2     1.04   1.31  10.00   0.00  12.35     1.65
  Sn       3     1.04   1.31  10.00   0.00  12.35     1.65
  Sn       4     1.04   1.31  10.00   0.00  12.35     1.65
  Sn       5     1.04   1.31  10.00   0.00  12.35     1.65
  Sn       6     1.04   1.31  10.00   0.00  12.35     1.65
  Sn       7     1.04   1.31  10.00   0.00  12.35     1.65
  Sn       8     1.04   1.31  10.00   0.00  12.35     1.65
  Sn       9     1.04   1.31  10.00   0.00  12.35     1.65
  Sn      10     1.04   1.31  10.00   0.00  12.35     1.65
  Sn      11     1.04   1.31  10.00   0.00  12.35     1.65
  La       1     2.08   6.18   1.19   0.00   9.46     1.54
  La       2     2.08   6.19   1.19   0.00   9.46     1.54
  La       3     2.06   6.18   1.19   0.00   9.44     1.56
  La       4     2.04   6.17   1.20   0.00   9.40     1.60
  La       5     2.06   6.18   1.19   0.00   9.44     1.56
  La       6     2.08   6.19   1.19   0.00   9.46     1.54
  La       7     2.04   6.17   1.20   0.00   9.40     1.60
  La       8     2.13   6.21   1.19   0.00   9.53     1.47
  La       9     2.09   6.19   1.19   0.00   9.47     1.53
  La      10     2.04   6.17   1.19   0.00   9.41     1.59
  La      11     2.04   6.17   1.19   0.00   9.41     1.59
  La      12     2.09   6.19   1.19   0.00   9.47     1.53
  La      13     2.07   6.18   1.20   0.00   9.44     1.56
  La      14     2.07   6.18   1.19   0.00   9.45     1.55
  La      15     2.12   6.21   1.19   0.00   9.52     1.48
  La      16     2.07   6.18   1.20   0.00   9.44     1.56
==============================================================
 
            Bond              Population      Length (A)
============================================================
         O 45 -- Sn 10             0.35        2.09714
         O 10 -- Sn 5              0.34        2.09965
         O 42 -- Sn 8              0.34        2.09965
         O 55 -- Sn 4              0.35        2.10030
         O 47 -- Sn 2              0.35        2.10030
         O 16 -- Sn 11             0.35        2.10150
         O 43 -- Sn 9              0.35        2.10150
         O 27 -- Sn 10             0.35        2.10480
         O 24 -- Sn 5              0.34        2.10499
         O 30 -- Sn 8              0.34        2.10499
         O 56 -- Sn 6              0.34        2.10504
         O 48 -- Sn 7              0.34        2.10504
         O 44 -- Sn 1              0.34        2.10511
         O 14 -- Sn 3              0.34        2.10511
         O 20 -- Sn 3              0.34        2.10534
         O 40 -- Sn 1              0.34        2.10534
         O 49 -- Sn 3              0.34        2.10682
         O 53 -- Sn 1              0.34        2.10682
         O 36 -- Sn 11             0.34        2.10695
         O 29 -- Sn 9              0.34        2.10695
         O 9  -- Zr 5              0.41        2.10757
         O 28 -- Sn 6              0.34        2.10799
         O 33 -- Sn 7              0.34        2.10799
         O 50 -- Sn 8              0.34        2.10858
         O 54 -- Sn 5              0.34        2.10858
         O 21 -- Sn 4              0.34        2.10901
         O 37 -- Sn 2              0.34        2.10901
         O 15 -- Sn 10             0.33        2.10985
         O 19 -- Sn 10             0.33        2.10985
         O 31 -- Sn 10             0.34        2.10989
         O 35 -- Sn 10             0.34        2.10989
         O 53 -- Sn 4              0.33        2.11003
         O 49 -- Sn 2              0.33        2.11003
         O 15 -- Sn 7              0.33        2.11015
         O 19 -- Sn 6              0.33        2.11015
         O 28 -- Sn 3              0.33        2.11030
         O 33 -- Sn 1              0.33        2.11030
         O 36 -- Sn 1              0.34        2.11030
         O 29 -- Sn 3              0.34        2.11030
         O 22 -- Sn 6              0.34        2.11054
         O 32 -- Sn 7              0.34        2.11054
         O 52 -- Zr 1              0.42        2.11150
         O 9  -- Zr 4              0.41        2.11175
         O 34 -- Sn 9              0.33        2.11193
         O 26 -- Sn 11             0.33        2.11193
         O 39 -- Sn 5              0.34        2.11217
         O 18 -- Sn 8              0.34        2.11217
         O 21 -- Sn 7              0.33        2.11297
         O 37 -- Sn 6              0.33        2.11297
         O 22 -- Sn 9              0.33        2.11320
         O 32 -- Sn 11             0.33        2.11320
         O 10 -- Zr 3              0.43        2.11326
         O 42 -- Zr 2              0.43        2.11326
         O 13 -- Sn 8              0.34        2.11336
         O 17 -- Sn 5              0.34        2.11336
         O 26 -- Sn 4              0.33        2.11351
         O 34 -- Sn 2              0.33        2.11351
         O 18 -- Sn 4              0.33        2.11390
         O 39 -- Sn 2              0.33        2.11390
         O 13 -- Sn 9              0.33        2.11450
         O 17 -- Sn 11             0.33        2.11450
         O 45 -- Zr 1              0.43        2.11525
         O 25 -- Sn 5              0.34        2.11590
         O 25 -- Sn 8              0.34        2.11590
         O 23 -- Zr 4              0.42        2.11618
         O 38 -- Zr 4              0.42        2.11618
         O 52 -- Zr 5              0.41        2.11646
         O 51 -- Zr 2              0.42        2.11773
         O 51 -- Zr 3              0.42        2.11773
         O 38 -- Zr 2              0.42        2.11825
         O 23 -- Zr 3              0.42        2.11825
         O 11 -- Sn 7              0.33        2.11877
         O 11 -- Sn 6              0.33        2.11877
         O 41 -- Sn 11             0.33        2.11878
         O 12 -- Sn 9              0.33        2.11878
         O 41 -- Sn 2              0.33        2.12057
         O 12 -- Sn 4              0.33        2.12057
         O 16 -- Zr 3              0.43        2.12062
         O 43 -- Zr 2              0.43        2.12062
         O 50 -- Zr 1              0.44        2.12215
         O 54 -- Zr 1              0.44        2.12215
         O 46 -- Sn 3              0.33        2.12219
         O 46 -- Sn 1              0.33        2.12219
         O 24 -- Zr 5              0.44        2.12229
         O 30 -- Zr 5              0.44        2.12229
         O 40 -- Zr 4              0.44        2.12361
         O 20 -- Zr 4              0.44        2.12361
         O 35 -- Zr 2              0.45        2.12366
         O 31 -- Zr 3              0.45        2.12366
         O 27 -- Zr 4              0.44        2.12468
         O 55 -- Zr 2              0.44        2.12469
         O 47 -- Zr 3              0.44        2.12469
         O 56 -- Zr 1              0.44        2.12487
         O 48 -- Zr 1              0.44        2.12487
         O 44 -- Zr 5              0.44        2.12588
         O 14 -- Zr 5              0.44        2.12588
         O 7  -- La 7              0.18        2.35553
         O 8  -- La 4              0.18        2.35553
         O 1  -- La 10             0.17        2.35641
         O 1  -- La 11             0.17        2.35641
         O 8  -- La 10             0.18        2.35686
         O 7  -- La 11             0.18        2.35686
         O 7  -- La 3              0.18        2.35693
         O 8  -- La 5              0.18        2.35693
         O 6  -- La 14             0.18        2.35706
         O 4  -- La 4              0.17        2.35708
         O 2  -- La 7              0.17        2.35708
         O 1  -- La 1              0.17        2.35722
         O 4  -- La 6              0.18        2.35735
         O 2  -- La 2              0.18        2.35735
         O 8  -- La 13             0.17        2.35788
         O 7  -- La 16             0.17        2.35788
         O 5  -- La 6              0.17        2.35790
         O 5  -- La 2              0.17        2.35790
         O 3  -- La 14             0.17        2.35793
         O 3  -- La 3              0.16        2.35854
         O 3  -- La 5              0.16        2.35854
         O 4  -- La 16             0.16        2.35869
         O 2  -- La 13             0.16        2.35869
         O 2  -- La 12             0.17        2.35894
         O 4  -- La 9              0.17        2.35894
         O 6  -- La 1              0.17        2.35923
         O 6  -- La 12             0.16        2.35981
         O 6  -- La 9              0.16        2.35981
         O 1  -- La 15             0.17        2.36054
         O 5  -- La 8              0.16        2.36149
         O 3  -- La 8              0.17        2.36152
         O 5  -- La 15             0.15        2.36211
         O 29 -- La 15             0.23        2.66589
         O 36 -- La 15             0.23        2.66589
         O 37 -- La 8              0.23        2.66610
         O 21 -- La 8              0.23        2.66610
         O 42 -- La 16             0.17        2.66698
         O 10 -- La 13             0.17        2.66698
         O 33 -- La 13             0.23        2.66754
         O 28 -- La 16             0.23        2.66754
         O 17 -- La 15             0.23        2.66754
         O 13 -- La 15             0.23        2.66754
         O 39 -- La 8              0.24        2.66770
         O 18 -- La 8              0.24        2.66770
         O 51 -- La 1              0.13        2.66808
         O 23 -- La 7              0.13        2.66822
         O 38 -- La 4              0.13        2.66822
         O 32 -- La 12             0.23        2.66825
         O 22 -- La 9              0.23        2.66825
         O 11 -- La 8              0.24        2.66851
         O 9  -- La 11             0.12        2.66908
         O 9  -- La 10             0.12        2.66908
         O 52 -- La 2              0.14        2.66927
         O 52 -- La 6              0.14        2.66927
         O 53 -- La 1              0.23        2.66965
         O 49 -- La 1              0.23        2.66965
         O 53 -- La 9              0.23        2.66966
         O 49 -- La 12             0.23        2.66966
         O 34 -- La 11             0.23        2.66995
         O 26 -- La 10             0.23        2.66995
         O 20 -- La 12             0.18        2.66996
         O 40 -- La 9              0.18        2.66996
         O 19 -- La 16             0.23        2.67035
         O 15 -- La 13             0.23        2.67035
         O 45 -- La 5              0.17        2.67045
         O 45 -- La 3              0.17        2.67045
         O 26 -- La 5              0.23        2.67057
         O 34 -- La 3              0.23        2.67057
         O 12 -- La 9              0.24        2.67059
         O 41 -- La 12             0.24        2.67059
         O 51 -- La 14             0.14        2.67061
         O 23 -- La 11             0.12        2.67087
         O 38 -- La 10             0.12        2.67087
         O 25 -- La 8              0.24        2.67114
         O 47 -- La 1              0.18        2.67119
         O 55 -- La 1              0.18        2.67119
         O 54 -- La 3              0.19        2.67123
         O 50 -- La 5              0.19        2.67123
         O 30 -- La 16             0.17        2.67128
         O 24 -- La 13             0.17        2.67128
         O 14 -- La 16             0.18        2.67163
         O 44 -- La 13             0.18        2.67163
         O 16 -- La 5              0.18        2.67184
         O 43 -- La 3              0.18        2.67184
         O 46 -- La 15             0.24        2.67185
         O 19 -- La 9              0.23        2.67206
         O 15 -- La 12             0.23        2.67206
         O 48 -- La 4              0.18        2.67224
         O 56 -- La 7              0.18        2.67224
         O 31 -- La 13             0.18        2.67229
         O 35 -- La 16             0.18        2.67229
         O 32 -- La 14             0.24        2.67260
         O 22 -- La 14             0.24        2.67260
         O 17 -- La 10             0.23        2.67285
         O 13 -- La 11             0.23        2.67285
         O 48 -- La 6              0.18        2.67329
         O 56 -- La 2              0.18        2.67329
         O 46 -- La 1              0.25        2.67340
         O 25 -- La 15             0.24        2.67347
         O 29 -- La 6              0.23        2.67356
         O 36 -- La 2              0.23        2.67356
         O 33 -- La 4              0.23        2.67396
         O 28 -- La 7              0.23        2.67396
         O 12 -- La 6              0.25        2.67439
         O 41 -- La 2              0.25        2.67439
         O 47 -- La 11             0.18        2.67455
         O 55 -- La 10             0.18        2.67455
         O 43 -- La 14             0.18        2.67480
         O 16 -- La 14             0.18        2.67480
         O 27 -- La 12             0.18        2.67496
         O 27 -- La 9              0.18        2.67496
         O 42 -- La 4              0.17        2.67524
         O 10 -- La 7              0.17        2.67524
         O 37 -- La 2              0.24        2.67527
         O 21 -- La 6              0.24        2.67527
         O 18 -- La 5              0.24        2.67547
         O 39 -- La 3              0.24        2.67547
         O 30 -- La 11             0.18        2.67550
         O 24 -- La 10             0.18        2.67550
         O 54 -- La 7              0.17        2.67607
         O 50 -- La 4              0.17        2.67607
         O 11 -- La 14             0.25        2.67654
         O 14 -- La 6              0.19        2.67769
         O 44 -- La 2              0.19        2.67769
         O 20 -- La 7              0.17        2.67785
         O 40 -- La 4              0.17        2.67785
         O 35 -- La 3              0.18        2.67812
         O 31 -- La 5              0.18        2.67812
         O 10 -- O 24             -0.06        2.79088
         O 30 -- O 42             -0.06        2.79088
         O 33 -- O 44             -0.06        2.79314
         O 14 -- O 28             -0.06        2.79314
         O 16 -- O 26             -0.06        2.79348
         O 34 -- O 43             -0.06        2.79348
         O 33 -- O 48             -0.06        2.79381
         O 28 -- O 56             -0.06        2.79381
         O 26 -- O 55             -0.06        2.79434
         O 34 -- O 47             -0.06        2.79434
         O 19 -- O 28             -0.05        2.79463
         O 15 -- O 33             -0.05        2.79463
         O 53 -- O 55             -0.06        2.79498
         O 47 -- O 49             -0.06        2.79498
         O 20 -- O 49             -0.06        2.79725
         O 40 -- O 53             -0.06        2.79725
         O 42 -- O 50             -0.06        2.79857
         O 10 -- O 54             -0.06        2.79857
         O 35 -- O 45             -0.06        2.79968
         O 31 -- O 45             -0.06        2.79968
         O 19 -- O 22             -0.05        2.80019
         O 15 -- O 32             -0.05        2.80019
         O 13 -- O 29             -0.05        2.80026
         O 17 -- O 36             -0.05        2.80026
         O 37 -- O 39             -0.05        2.80104
         O 18 -- O 21             -0.05        2.80104
         O 20 -- O 28             -0.06        2.80215
         O 33 -- O 40             -0.06        2.80215
         O 15 -- O 31             -0.06        2.80308
         O 19 -- O 35             -0.06        2.80308
         O 22 -- O 43             -0.06        2.80316
         O 16 -- O 32             -0.06        2.80316
         O 17 -- O 26             -0.05        2.80379
         O 13 -- O 34             -0.05        2.80379
         O 39 -- O 54             -0.06        2.80413
         O 18 -- O 50             -0.06        2.80413
         O 13 -- O 30             -0.06        2.80428
         O 17 -- O 24             -0.06        2.80428
         O 37 -- O 56             -0.06        2.80448
         O 21 -- O 48             -0.06        2.80448
         O 18 -- O 26             -0.05        2.80561
         O 34 -- O 39             -0.05        2.80561
         O 36 -- O 44             -0.06        2.80572
         O 14 -- O 29             -0.06        2.80572
         O 32 -- O 41             -0.05        2.80598
         O 12 -- O 22             -0.05        2.80598
         O 15 -- O 27             -0.06        2.80626
         O 19 -- O 27             -0.06        2.80626
         O 12 -- O 53             -0.05        2.80634
         O 41 -- O 49             -0.05        2.80634
         O 11 -- O 37             -0.05        2.80721
         O 11 -- O 21             -0.05        2.80721
         O 12 -- O 29             -0.05        2.80835
         O 36 -- O 41             -0.05        2.80835
         O 46 -- O 53             -0.05        2.80839
         O 46 -- O 49             -0.05        2.80839
         O 37 -- O 41             -0.05        2.80939
         O 12 -- O 21             -0.05        2.80939
         O 11 -- O 32             -0.05        2.80960
         O 11 -- O 22             -0.05        2.80960
         O 29 -- O 46             -0.05        2.80998
         O 36 -- O 46             -0.05        2.80998
         O 25 -- O 39             -0.05        2.81211
         O 18 -- O 25             -0.05        2.81211
         O 13 -- O 25             -0.05        2.81254
         O 17 -- O 25             -0.05        2.81254
         O 9  -- O 38             -0.03        2.81569
         O 9  -- O 23             -0.03        2.81569
         O 10 -- O 23             -0.03        2.81740
         O 38 -- O 42             -0.03        2.81740
         O 9  -- O 30             -0.03        2.82017
         O 9  -- O 24             -0.03        2.82017
         O 47 -- O 51             -0.03        2.82411
         O 51 -- O 55             -0.03        2.82411
         O 35 -- O 42             -0.03        2.82417
         O 10 -- O 31             -0.03        2.82417
         O 45 -- O 54             -0.03        2.82426
         O 45 -- O 50             -0.03        2.82426
         O 38 -- O 55             -0.03        2.82454
         O 23 -- O 47             -0.03        2.82454
         O 52 -- O 56             -0.03        2.82513
         O 48 -- O 52             -0.03        2.82513
         O 38 -- O 40             -0.03        2.82710
         O 20 -- O 23             -0.03        2.82710
         O 43 -- O 51             -0.03        2.82795
         O 16 -- O 51             -0.03        2.82795
         O 44 -- O 52             -0.03        2.82902
         O 14 -- O 52             -0.03        2.82902
         O 54 -- O 56             -0.03        2.83181
         O 48 -- O 50             -0.03        2.83181
         O 14 -- O 30             -0.03        2.83205
         O 24 -- O 44             -0.03        2.83205
         O 16 -- O 31             -0.03        2.83635
         O 35 -- O 43             -0.03        2.83635
         O 27 -- O 40             -0.03        2.83869
         O 20 -- O 27             -0.03        2.83869
============================================================
 
Initialisation time =     24.90 s
Calculation time    =   2760.27 s
Finalisation time   =      0.12 s
Total time          =   2785.30 s
Peak Memory Use     = 3657044 kB
  
Overall parallel efficiency rating: Good (72%)                                  
  
Data was distributed by:-
G-vector (64-way); efficiency rating: Good (75%)                                
k-point (14-way); efficiency rating: Excellent (95%)                            
