 +-------------------------------------------------+
 |                                                 |
 |      CCC   AA    SSS  TTTTT  EEEEE  PPPP        |
 |     C     A  A  S       T    E      P   P       |
 |     C     AAAA   SS     T    EEE    PPPP        |
 |     C     A  A     S    T    E      P           |
 |      CCC  A  A  SSS     T    EEEEE  P           |
 |                                                 |
 +-------------------------------------------------+
 |                                                 |
 | Welcome to Academic Release CASTEP version 16.1 |          
 | Ab Initio Total Energy Program                  |
 |                                                 |
 | Authors:                                        |
 | M. Segall, M. Probert, C. Pickard, P. Hasnip,   |
 | S. Clark, K. Refson, J. R. Yates, M. Payne      |
 |                                                 |
 | Contributors:                                   |
 | P. Lindan, P. Haynes, J. White, V. Milman,      |
 | N. Govind, M. Gibson, P. Tulip, V. Cocula,      |
 | B. Montanari, D. Quigley, M. Glover,            |
 | L. Bernasconi, A. Perlov, M. Plummer,           |
 | E. McNellis, J. Meyer, J. Gale, D. Jochym       |
 | J. Aarons, B. Walker, R. Gillen, D. Jones       |
 | T. Green, I. J. Bush, C. J. Armstrong,          |
 | E. J. Higgins, E. L. Brown, M. S. McFly         |
 |                                                 |
 | Copyright (c) 2000 - 2015                       |
 |                                                 |
 |     Distributed under the terms of an           |
 |     Agreement between the United Kingdom        |
 |     Car-Parrinello (UKCP) Consortium,           |
 |     Daresbury Laboratory and Accelrys, Inc.     |
 |                                                 |
 | Please cite                                     |
 |                                                 |
 |     "First principles methods using CASTEP"     |
 |                                                 |
 |         Zeitschrift fuer Kristallographie       |
 |           220(5-6) pp. 567-570 (2005)           |
 |                                                 |
 | S. J. Clark, M. D. Segall, C. J. Pickard,       |
 | P. J. Hasnip, M. J. Probert, K. Refson,         |
 | M. C. Payne                                     |
 |                                                 |
 |       in all publications arising from          |
 |              your use of CASTEP                 |
 |                                                 |
 +-------------------------------------------------+
 
 
 Compiled for linux_x86_64_cray-XT on Tue, 22 Mar 2022 15:42:52 +0000
 from code version b833c1ffcd7d+  Fri, 13 Jun 2014 17:24:31 +0100
 Compiler: Cray Fortran 11.0.4; Optimisation: intermediate
 MATHLIBS: LibSci (LAPACK version 3.6.1)
 FFT Lib : default
 Fundamental constants values: CODATA 2010
 
 Run started: Wed, 30 Mar 2022 00:34:26 -0100
 +-------------------------------------------------+
 |                                                 |
 |           N   N    M   M    RRRR                |
 |           NN  N    MM MM    R   R               |
 |           N N N    M M M    RRRR                |
 |           N  NN    M   M    R  R                |
 |           N   N    M   M    R   R               |
 |                                                 |
 +-------------------------------------------------+
 |                                                 |
 | Welcome to Materials Studio CASTEP-NMR          |
 |                                                 |
 | Authors:                                        |
 | J.R. Yates, C.J. Pickard, F. Mauri              |
 |                                                 |
 | Contributors:                                   |
 | T.F.G. Green, S.A. Joyce                        |
 |                                                 |
 | Copyright (c) 2004 - 2015                       |
 |                                                 |
 | Please cite the appropriate publications in all |
 | work arising from your use of CASTEP NMR.       |
 |                                                 |
 | For NMR Shielding Tensors cite:                 |
 |    "All-electron magnetic response with         |
 |    pseudopotentials: NMR chemical shifts",      |
 |    C. J. Pickard, F. Mauri;                     |
 |    Physical Review B63 245101 (2001), and       |
 |                                                 |
 |    "Calculation of NMR Chemical Shifts          |
 |    for extended systems using                   |
 |    Ultrasoft Pseudopotentials",                 |
 |    J. R. Yates, C. J. Pickard and F. Mauri      |
 |    Physical Review B76 024401 (2007)            |
 |                                                 |
 | For Electric Field Gradients cite:              |
 |   "Accurate First Principles Prediction of 17O  |
 |    NMR Parameters in SiO2: Assignment of the    |
 |    Zeolite Ferrierite Spectrum"                 |
 |    M. Profeta, F. Mauri and C. J. Pickard       |
 |    J. Amer. Chem. Soc. 125 541 (2003)           |
 |                                                 |
 | For Spin-Spin (J) Couplings cite:               |
 |   "A first principles theory of NMR J-coupling  |
 |   in solid-state systems"                       |
 |   S.A. Joyce, J.R. Yates, C.J. Pickard, F. Mauri|
 |   J. Chem. Phys. 127 204107 (2007)              |
 |                                                 |
 |   "Relativistic NMR J-coupling with ultrasoft   |
 |   pseudopotentials and the zeroth-order regular |
 |   approximation"                                |
 |   T.F.G. Green and J.R. Yates                   |
 |   J. Chem. Phys. 140 234106 (2014)              |
 |                                                 |
 +-------------------------------------------------+
 
 
 Atomic calculation performed for O: 1s2 2s2 2p4
 
 Converged in 44 iterations to an ae energy of -2040.855 eV
 
 
 Atomic calculation performed for O: 1s2 2s2 2p4
 
 Exceeded max iterations: converged to 0.000000062 eV
 
   ============================================================                
   | Pseudopotential Report - Date of generation 30-03-2022   |                
   ------------------------------------------------------------                
   | Element: O Ionic charge:  6.00 Level of theory: PBE      |                
   | Atomic Solver: ZORA (scalar)                             |                
   |                                                          |                
   |               Reference Electronic Structure             |                
   |         Orbital         Occupation         Energy        |                
   |            2s              2.000           -0.881        |                
   |            2p              4.000           -0.332        |                
   |                                                          |                
   |                 Pseudopotential Definition               |                
   |        Beta     l      e      Rc     scheme   norm       |                
   |          1      0   -0.881   1.100     qc      0         |                
   |          2      0    0.250   1.100     qc      0         |                
   |          3      1   -0.332   1.100     qc      0         |                
   |          4      1    0.250   1.100     qc      0         |                
   |         loc     2    0.000   1.100     pn      0         |                
   |                                                          |                
   | Augmentation charge Rinner = 0.769                       |                
   | Partial core correction Rc = 0.769                       |                
   ------------------------------------------------------------                
   | "2|1.1|15|18|20|20:21(qc=7)"                             |                
   ------------------------------------------------------------                
   |      Author: Chris J. Pickard, Cambridge University      |                
   ============================================================                
 
 Atomic calculation performed for Zr: 1s2 2s2 2p6 3s2 3p6 3d10 4s2 4p6 4d2 5s2
 
 Converged in 52 iterations to an ae energy of -97719.888 eV
 
 
 Atomic calculation performed for Zr: 1s2 2s2 2p6 3s2 3p6 3d10 4s2 4p6 4d2 5s2
 
 Exceeded max iterations: converged to 0.000000936 eV
 
 Warning: ion_atom_descreen_psp: negative charge density encountered
   ============================================================                
   | Pseudopotential Report - Date of generation 30-03-2022   |                
   ------------------------------------------------------------                
   | Element: Zr Ionic charge: 12.00 Level of theory: PBE     |                
   | Atomic Solver: ZORA (scalar)                             |                
   |                                                          |                
   |               Reference Electronic Structure             |                
   |         Orbital         Occupation         Energy        |                
   |            4s              2.000           -2.003        |                
   |            4p              6.000           -1.193        |                
   |            5s              2.000           -0.163        |                
   |            4d              2.000           -0.132        |                
   |                                                          |                
   |                 Pseudopotential Definition               |                
   |        Beta     l      e      Rc     scheme   norm       |                
   |          1      0   -2.003   2.105     qc      0         |                
   |          2      0   -0.163   2.105     qc      0         |                
   |          3      0    0.250   2.105     qc      0         |                
   |          4      1   -1.193   2.105     qc      0         |                
   |          5      1    0.250   2.105     qc      0         |                
   |          6      2   -0.132   2.105     qc      0         |                
   |          7      2    0.250   2.105     qc      0         |                
   |         loc     3    0.000   2.105     pn      0         |                
   |                                                          |                
   | Augmentation charge Rinner = 1.471                       |                
   | Partial core correction Rc = 1.471                       |                
   ------------------------------------------------------------                
   | "3|2.1|7|8|9|40U:50:41:42"                               |                
   ------------------------------------------------------------                
   |      Author: Chris J. Pickard, Cambridge University      |                
   ============================================================                
 
 Atomic calculation performed for Sn:
 1s2 2s2 2p6 3s2 3p6 3d10 4s2 4p6 4d10 5s2 5p2
 
 Converged in 58 iterations to an ae energy of -167539.320 eV
 
 
 Atomic calculation performed for Sn:
 1s2 2s2 2p6 3s2 3p6 3d10 4s2 4p6 4d10 5s2 5p2
 
 Exceeded max iterations: converged to -0.000000491 eV
 
   ============================================================                
   | Pseudopotential Report - Date of generation 30-03-2022   |                
   ------------------------------------------------------------                
   | Element: Sn Ionic charge: 14.00 Level of theory: PBE     |                
   | Atomic Solver: ZORA (scalar)                             |                
   |                                                          |                
   |               Reference Electronic Structure             |                
   |         Orbital         Occupation         Energy        |                
   |            4d             10.000           -0.950        |                
   |            5s              2.000           -0.388        |                
   |            5p              2.000           -0.136        |                
   |                                                          |                
   |                 Pseudopotential Definition               |                
   |        Beta     l      e      Rc     scheme   norm       |                
   |          1      0   -0.388   2.199     qc      0         |                
   |          2      0    0.250   2.199     qc      0         |                
   |          3      1   -0.136   2.199     qc      0         |                
   |          4      1    0.250   2.199     qc      0         |                
   |          5      2   -0.950   2.199     qc      0         |                
   |          6      2    0.250   2.199     qc      0         |                
   |         loc     3    0.000   2.199     pn      0         |                
   |                                                          |                
   | Augmentation charge Rinner = 1.537                       |                
   | Partial core correction Rc = 1.537                       |                
   ------------------------------------------------------------                
   | "3|2.2|7|8|9|50:51:42"                                   |                
   ------------------------------------------------------------                
   |      Author: Chris J. Pickard, Cambridge University      |                
   ============================================================                
 
 Atomic calculation performed for La:
 1s2 2s2 2p6 3s2 3p6 3d10 4s2 4p6 4d10 5s2 5p6 5d1 6s2
 
 Converged in 55 iterations to an ae energy of -230121.495 eV
 
 
 Atomic calculation performed for La:
 1s2 2s2 2p6 3s2 3p6 3d10 4s2 4p6 4d10 5s2 5p6 5d1 6s2
 
 Exceeded max iterations: converged to 0.000001134 eV
 
 Warning: ion_atom_descreen_psp: negative charge density encountered
   ============================================================                
   | Pseudopotential Report - Date of generation 30-03-2022   |                
   ------------------------------------------------------------                
   | Element: La Ionic charge: 11.00 Level of theory: PBE     |                
   | Atomic Solver: ZORA (scalar)                             |                
   |                                                          |                
   |               Reference Electronic Structure             |                
   |         Orbital         Occupation         Energy        |                
   |            5s              2.000           -1.430        |                
   |            5p              6.000           -0.823        |                
   |            6s              2.000           -0.135        |                
   |            5d              1.000           -0.114        |                
   |                                                          |                
   |                 Pseudopotential Definition               |                
   |        Beta     l      e      Rc     scheme   norm       |                
   |          1      0   -1.430   2.298     qc      0         |                
   |          2      0   -0.135   2.298     qc      0         |                
   |          3      0    0.250   2.298     qc      0         |                
   |          4      1   -0.823   2.298     qc      0         |                
   |          5      1    0.250   2.298     qc      0         |                
   |          6      2   -0.114   2.298     qc      0         |                
   |          7      2    0.250   2.298     qc      0         |                
   |         loc     2    0.000   2.298     pn      0         |                
   |                                                          |                
   | Augmentation charge Rinner = 1.606                       |                
   | Partial core correction Rc = 1.606                       |                
   ------------------------------------------------------------                
   | "2|2.3|5|6|7|50U:60:51:52(qc=4.5)"                       |                
   ------------------------------------------------------------                
   |      Author: Chris J. Pickard, Cambridge University      |                
   ============================================================                
 
 Pseudo atomic calculation performed for O 2s2 2p4
 
 Converged in 39 iterations to a total energy of -432.6554 eV
 
 
 Pseudo atomic calculation performed for Zr 4s2 4p6 4d2 5s2
 
 Converged in 38 iterations to a total energy of -1285.4931 eV
 
 
 Pseudo atomic calculation performed for Sn 4d10 5s2 5p2
 
 Converged in 48 iterations to a total energy of -2044.5413 eV
 
 
 Pseudo atomic calculation performed for La 5s2 5p6 5d1 6s2
 
 Converged in 34 iterations to a total energy of -968.0373 eV
 
 Calculation parallelised over 896 processes.
 Data is distributed by G-vector(64-way) and k-point(14-way)

 ************************************ Title ************************************
 nmr testing

 ***************************** General Parameters ******************************
  
 output verbosity                               : normal  (1)
 write checkpoint data to                       : 35.check
 type of calculation                            : Magnetic Resonance
 stress calculation                             : on
 density difference calculation                 : off
 electron localisation func (ELF) calculation   : off
 Hirshfeld analysis                             : off
 unlimited duration calculation
 timing information                             : on
 memory usage estimate                          : on
 write final potential to formatted file        : off
 write final density to formatted file          : off
 write BibTeX reference list                    : off
 write OTFG pseudopotential files               : on
 checkpoint writing                             : off
  
 output         length unit                     : A
 output           mass unit                     : amu
 output           time unit                     : ps
 output         charge unit                     : e
 output           spin unit                     : hbar/2
 output         energy unit                     : eV
 output          force unit                     : eV/A
 output       velocity unit                     : A/ps
 output       pressure unit                     : GPa
 output     inv_length unit                     : 1/A
 output      frequency unit                     : cm-1
 output force constant unit                     : eV/A**2
 output         volume unit                     : A**3
 output   IR intensity unit                     : (D/A)**2/amu
 output         dipole unit                     : D
 output         efield unit                     : eV/A/e
 output        entropy unit                     : J/mol/K
  
 wavefunctions paging                           : none
 random number generator seed                   : randomised (3426134)
 data distribution                              : optimal for this architecture
 optimization strategy                          : maximize speed(+++)

 *********************** Exchange-Correlation Parameters ***********************
  
 using functional                               : Perdew Burke Ernzerhof
 relativistic treatment                         : ZORA
 DFT+D: Semi-empirical dispersion correction    : off

 ************************* Pseudopotential Parameters **************************
  
 pseudopotential representation                 : reciprocal space
 <beta|phi> representation                      : reciprocal space
 spin-orbit coupling                            : off

 **************************** Basis Set Parameters *****************************
  
 plane wave basis set cut-off                   :   816.3416   eV
 size of standard grid                          :     1.7500
 size of   fine   gmax                          :    25.6161   1/A
 finite basis set correction                    : automatic
 number of sample energies                      :          3
           sample  spacing                      :     5.0000   eV

 **************************** Electronic Parameters ****************************
  
 number of  electrons                           :  726.0    
 net charge of system                           :  0.000    
 treating system as non-spin-polarized
 number of bands                                :        436

 ********************* Electronic Minimization Parameters **********************
  
 Method: Treating system as metallic with density mixing treatment of electrons,
         and number of  SD  steps               :          1
         and number of  CG  steps               :          4
  
 total energy / atom convergence tol.           : 0.1000E-08   eV
 eigen-energy convergence tolerance             : 0.2424E-09   eV
 max force / atom convergence tol.              : ignored
 convergence tolerance window                   :          3   cycles
 max. number of SCF cycles                      :        250
 number of fixed-spin iterations                :         10
 smearing scheme                                : Gaussian
 smearing width                                 : 0.2000       eV
 Fermi energy convergence tolerance             : 0.2721E-13   eV
 periodic dipole correction                     : NONE

 ************************** Density Mixing Parameters **************************
  
 density-mixing scheme                          : Broyden
 max. length of mixing history                  :         20
 charge density mixing amplitude                : 0.8000    
 cut-off energy for mixing                      :  816.3       eV

 *********************** Population Analysis Parameters ************************
  
 Population analysis with cutoff                :  3.000       A

 ************************ Magnetic Resonance Parameters ************************
  
 Magnetic Resonance Property                    : Chemical Shielding + EFG
 Position Operator Method                       : crystal
 max. number of MagRes CG steps                 :        250
 convergence tolerance window                   :          2   cycles
 energy convergence tolerance                   : 0.1000E-11   eV
 band convergence tolerance                     : 0.1000E-08   eV

 *******************************************************************************
  
 
                           -------------------------------
                                      Unit Cell
                           -------------------------------
        Real Lattice(A)                      Reciprocal Lattice(1/A)
  10.8913897   0.0082127   0.0082127        0.5768954  -0.0004352  -0.0004352
   0.0082211  10.8919527   0.0053859       -0.0004348   0.5768654  -0.0002849
   0.0082211   0.0053859  10.8919527       -0.0004348  -0.0002849   0.5768654
 
                       Lattice parameters(A)       Cell Angles
                    a =   10.891396          alpha =   89.943303
                    b =   10.891957          beta  =   89.913528
                    c =   10.891957          gamma =   89.913528
 
                       Current cell volume = 1292.094255       A**3
 
                           -------------------------------
                                     Cell Contents
                           -------------------------------
                         Total number of ions in cell =   88
                      Total number of species in cell =    4
                        Max number of any one species =   56
 
            xxxxxxxxxxxxxxxxxxxxxxxxxxxxxxxxxxxxxxxxxxxxxxxxxxxxxxxxxxxx
            x  Element    Atom        Fractional coordinates of atoms  x
            x            Number           u          v          w      x
            x----------------------------------------------------------x
            x  O            1         0.125115   0.125018   0.124814   x 
            x  O            2         0.624856   0.125039   0.625039   x 
            x  O            3         0.125115   0.624814   0.625018   x 
            x  O            4         0.624763   0.624967   0.124967   x 
            x  O            5         0.875060   0.375229   0.374933   x 
            x  O            6         0.875060   0.874933   0.875229   x 
            x  O            7         0.374871   0.375185   0.875185   x 
            x  O            8         0.375008   0.874768   0.374768   x 
            x  O            9         0.420258   0.125552   0.125614   x 
            x  O           10         0.330311   0.124478   0.624478   x 
            x  O           11         0.830354   0.624821   0.624428   x 
            x  O           12         0.920729   0.626017   0.126017   x 
            x  O           13         0.125105   0.420401   0.124790   x 
            x  O           14         0.624798   0.330272   0.124308   x 
            x  O           15         0.624901   0.830095   0.624273   x 
            x  O           16         0.125001   0.919309   0.624353   x 
            x  O           17         0.125001   0.124353   0.419309   x 
            x  O           18         0.123639   0.625913   0.329054   x 
            x  O           19         0.624798   0.624308   0.830272   x 
            x  O           20         0.625778   0.125867   0.920477   x 
            x  O           21         0.874846   0.669676   0.375596   x 
            x  O           22         0.873811   0.579645   0.874385   x 
            x  O           23         0.373926   0.079576   0.874254   x 
            x  O           24         0.374990   0.169968   0.375409   x 
            x  O           25         0.170781   0.374223   0.376482   x 
            x  O           26         0.080515   0.875613   0.375613   x 
            x  O           27         0.579349   0.873984   0.874292   x 
            x  O           28         0.669565   0.375756   0.875756   x 
            x  O           29         0.873811   0.374385   0.079645   x 
            x  O           30         0.376370   0.374410   0.170551   x 
            x  O           31         0.374990   0.875409   0.669968   x 
            x  O           32         0.875152   0.875058   0.580655   x 
            x  O           33         0.669457   0.875411   0.375411   x 
            x  O           34         0.079817   0.374025   0.874025   x 
            x  O           35         0.376370   0.670551   0.874410   x 
            x  O           36         0.875152   0.080655   0.375058   x 
            x  O           37         0.875595   0.375242   0.669761   x 
            x  O           38         0.375007   0.875418   0.079706   x 
            x  O           39         0.124582   0.330438   0.625015   x 
            x  O           40         0.626012   0.920120   0.125717   x 
            x  O           41         0.919490   0.124864   0.624864   x 
            x  O           42         0.329814   0.624378   0.124378   x 
            x  O           43         0.125105   0.624790   0.920401   x 
            x  O           44         0.624901   0.124273   0.330095   x 
            x  O           45         0.420258   0.625614   0.625552   x 
            x  O           46         0.830354   0.124428   0.124821   x 
            x  O           47         0.124582   0.125015   0.830438   x 
            x  O           48         0.626012   0.625717   0.420120   x 
            x  O           49         0.875595   0.169761   0.875242   x 
            x  O           50         0.375007   0.579706   0.375418   x 
            x  O           51         0.170781   0.876482   0.874223   x 
            x  O           52         0.579349   0.374292   0.373984   x 
            x  O           53         0.874846   0.875596   0.169676   x 
            x  O           54         0.373926   0.374254   0.579576   x 
            x  O           55         0.123639   0.829054   0.125913   x 
            x  O           56         0.625778   0.420477   0.625867   x 
            x  Zr           1         0.500052   0.500135   0.500093   x 
            x  Zr           2         0.250442   0.750436  -0.000192   x 
            x  Zr           3         0.500052   0.000093   0.000135   x 
            x  Zr           4         0.250443   0.499808   0.250436   x 
            x  Zr           5        -0.000332   0.499744  -0.000256   x 
            x  Sn           1         0.750469  -0.000374   0.250453   x 
            x  Sn           2         0.000424   0.249628   0.749628   x 
            x  Sn           3         0.750045   0.250084   0.000022   x 
            x  Sn           4         0.248982   0.000863   0.748904   x 
            x  Sn           5        -0.001504   0.751640   0.251640   x 
            x  Sn           6         0.248982   0.248904   0.500863   x 
            x  Sn           7         0.750045   0.500022   0.750084   x 
            x  Sn           8         0.750469   0.750453   0.499626   x 
            x  Sn           9         0.500507   0.249382   0.249450   x 
            x  Sn          10         0.500507   0.749450   0.749382   x 
            x  Sn          11        -0.000003  -0.000002   0.499998   x 
            x  La           1         0.000297  -0.000166   0.000057   x 
            x  La           2         0.749757   0.250394   0.499998   x 
            x  La           3         0.250060   0.500152   0.750229   x 
            x  La           4         0.499874   0.749848   0.249848   x 
            x  La           5         0.250238   0.749631   0.499853   x 
            x  La           6         0.749910   0.500061   0.249784   x 
            x  La           7         0.499901   0.250207   0.750207   x 
            x  La           8         0.000297   0.500057   0.499834   x 
            x  La           9         0.749910   0.749784   0.000061   x 
            x  La          10         0.250238  -0.000147   0.249631   x 
            x  La          11         0.250060   0.250229   0.000152   x 
            x  La          12         0.749757  -0.000002   0.750394   x 
            x  La          13         0.499793  -0.000109   0.499891   x 
            x  La          14         0.000264   0.749630   0.750432   x 
            x  La          15         0.000264   0.250432   0.249630   x 
            x  La          16         0.499742   0.500131   0.000131   x 
            xxxxxxxxxxxxxxxxxxxxxxxxxxxxxxxxxxxxxxxxxxxxxxxxxxxxxxxxxxxx
 
 
                         No user defined ionic velocities
 
                           -------------------------------
                                   Details of Species
                           -------------------------------
 
                               Mass of species in AMU
                                    O   15.9994000
                                    Zr   91.2240000
                                    Sn  118.7100000
                                    La  138.9055000
 
                          Electric Quadrupole Moment (Barn)
                                    O   -0.0255800 Isotope 17
                                    Zr   -0.1760000 Isotope 91
                                    Sn    1.0000000 No Isotope Defined
                                    La    0.2000000 Isotope139
 
                          Files used for pseudopotentials:
                                    O 2|1.1|15|18|20|20:21(qc=7)
                                    Zr 3|2.1|7|8|9|40U:50:41:42
                                    Sn 3|2.2|7|8|9|50:51:42
                                    La 2|2.3|5|6|7|50U:60:51:52(qc=4.5)
 
                           -------------------------------
                              k-Points For BZ Sampling
                           -------------------------------
                       MP grid size for SCF calculation is  3  3  3
                            with an offset of   0.000  0.000  0.000
                       Number of kpoints used =   14
 
                           -------------------------------
                               Symmetry and Constraints
                           -------------------------------
 
                      Maximum deviation from symmetry =  0.00000         ANG
 
         There are no symmetry operations specified or generated for this cell
                      Number of ionic constraints     = 3
                      Point group of crystal =     1: C1, 1, 1
                      Space group of crystal =     8: Cm, C -2y
 
 
                         Centre of mass is constrained
             Set iprint > 1 for details of linear ionic constraints
 
                         Number of cell constraints= 0
                         Cell constraints are:  1 2 3 4 5 6
 
                         External pressure/stress (GPa)
                          0.00000   0.00000   0.00000
                                    0.00000   0.00000
                                              0.00000
  
+---------------- MEMORY AND SCRATCH DISK ESTIMATES PER PROCESS --------------+
|                                                     Memory          Disk    |
| Baseline code, static data and system overhead      839.0 MB         0.0 MB |
| BLAS internal memory storage                          0.0 MB         0.0 MB |
| Model and support data                              149.3 MB         0.0 MB |
| Electronic energy minimisation requirements          28.5 MB         0.0 MB |
| Force calculation requirements                        1.5 MB         0.0 MB |
| Stress calculation requirements                       1.8 MB         0.0 MB |
|                                               ----------------------------- |
| Approx. total storage required per process         1016.8 MB         0.0 MB |
|                                                                             |
| Requirements will fluctuate during execution and may exceed these estimates |
+-----------------------------------------------------------------------------+
Calculating finite basis set correction with  3 cut-off energies.
Calculating total energy with cut-off of  806.342eV.
------------------------------------------------------------------------ <-- SCF
SCF loop      Energy           Fermi           Energy gain       Timer   <-- SCF
                               energy          per atom          (sec)   <-- SCF
------------------------------------------------------------------------ <-- SCF
Initial  -5.90728628E+004  0.00000000E+000                        35.05  <-- SCF
      1  -6.67862158E+004  7.35198261E+000   8.76517393E+001      45.72  <-- SCF
      2  -6.93327724E+004  6.31764278E+000   2.89381434E+001      53.00  <-- SCF
      3  -6.94180442E+004  6.02666275E+000   9.68996740E-001      61.01  <-- SCF
      4  -6.94088725E+004  7.47347344E+000  -1.04223183E-001      70.20  <-- SCF
      5  -6.93129199E+004  6.60562844E+000  -1.09037056E+000      79.45  <-- SCF
      6  -6.93139876E+004  6.50096518E+000   1.21325977E-002      91.88  <-- SCF
      7  -6.93135873E+004  6.58130367E+000  -4.54875218E-003     101.91  <-- SCF
      8  -6.93136998E+004  6.58696302E+000   1.27890506E-003     115.53  <-- SCF
      9  -6.93137250E+004  6.58900071E+000   2.86185199E-004     126.32  <-- SCF
     10  -6.93137221E+004  6.58853963E+000  -3.28670964E-005     136.53  <-- SCF
     11  -6.93137227E+004  6.58968879E+000   6.85919427E-006     147.03  <-- SCF
     12  -6.93137229E+004  6.58999248E+000   2.58338414E-006     157.44  <-- SCF
     13  -6.93137229E+004  6.58972093E+000  -8.08649601E-008     167.11  <-- SCF
     14  -6.93137229E+004  6.58960768E+000  -3.37663293E-007     176.82  <-- SCF
     15  -6.93137229E+004  6.58936953E+000  -6.48344695E-008     187.49  <-- SCF
     16  -6.93137229E+004  6.58920967E+000  -6.09673585E-009     196.53  <-- SCF
     17  -6.93137229E+004  6.58916608E+000  -7.61568182E-009     205.05  <-- SCF
     18  -6.93137229E+004  6.58911326E+000   1.01159946E-009     212.03  <-- SCF
     19  -6.93137229E+004  6.58908920E+000   3.88806297E-010     218.29  <-- SCF
     20  -6.93137229E+004  6.58909128E+000   4.73879646E-011     224.46  <-- SCF
------------------------------------------------------------------------ <-- SCF
 
Final energy, E             =  -69313.72290366     eV
Final free energy (E-TS)    =  -69313.72290366     eV
(energies not corrected for finite basis set)
 
NB est. 0K energy (E-0.5TS)      =  -69313.72290366     eV
 
Calculating total energy with cut-off of  811.342eV.
------------------------------------------------------------------------ <-- SCF
SCF loop      Energy           Fermi           Energy gain       Timer   <-- SCF
                               energy          per atom          (sec)   <-- SCF
------------------------------------------------------------------------ <-- SCF
Initial  -6.93137229E+004  0.00000000E+000                       226.58  <-- SCF
      1  -6.93137255E+004  6.58908639E+000   2.96856271E-005     235.04  <-- SCF
      2  -6.93137255E+004  6.58908639E+000   1.92364200E-010     241.19  <-- SCF
      3  -6.93137255E+004  6.58908245E+000   1.78537320E-008     247.37  <-- SCF
      4  -6.93137255E+004  6.58908877E+000   5.96216528E-010     253.55  <-- SCF
      5  -6.93137255E+004  6.58908640E+000  -4.07789606E-011     259.70  <-- SCF
------------------------------------------------------------------------ <-- SCF
 
Final energy, E             =  -69313.72551763     eV
Final free energy (E-TS)    =  -69313.72551763     eV
(energies not corrected for finite basis set)
 
NB est. 0K energy (E-0.5TS)      =  -69313.72551763     eV
 
Calculating total energy with cut-off of  816.342eV.
------------------------------------------------------------------------ <-- SCF
SCF loop      Energy           Fermi           Energy gain       Timer   <-- SCF
                               energy          per atom          (sec)   <-- SCF
------------------------------------------------------------------------ <-- SCF
Initial  -6.93137255E+004  0.00000000E+000                       261.83  <-- SCF
      1  -6.93137284E+004  6.58908660E+000   3.27767245E-005     270.39  <-- SCF
      2  -6.93137284E+004  6.58908660E+000   1.94051606E-010     276.63  <-- SCF
      3  -6.93137284E+004  6.58907990E+000   1.92846517E-008     282.82  <-- SCF
      4  -6.93137284E+004  6.58908669E+000   6.24480566E-010     289.12  <-- SCF
      5  -6.93137284E+004  6.58908280E+000  -2.60141645E-011     295.35  <-- SCF
------------------------------------------------------------------------ <-- SCF
 
Final energy, E             =  -69313.72840375     eV
Final free energy (E-TS)    =  -69313.72840375     eV
(energies not corrected for finite basis set)
 
NB est. 0K energy (E-0.5TS)      =  -69313.72840375     eV
 
 For future reference: finite basis dEtot/dlog(Ecut) =      -0.442399eV
 Total energy corrected for finite basis set =  -69313.728395 eV
 
  =====================================================================
  +       Calculation of Nuclear Magnetic Resonance Parameters        +
  + ================================================================= +
 
  Starting Calculation of Electric Field Gradient Tensors         |<-- EFG
  +---------------- MEMORY AND SCRATCH DISK ESTIMATES PER PROCESS --------------+
  |                                                     Memory          Disk    |
  | Model and support data                              151.1 MB         0.0 MB |
  | NMR EFG calculation requirements                     27.6 MB         0.0 MB |
  |                                               ----------------------------- |
  | Approx. total storage required per process          178.6 MB         0.0 MB |
  |                                                                             |
  | Requirements will fluctuate during execution and may exceed these estimates |
  +-----------------------------------------------------------------------------+
  Total Time for EFG Tensors                      30.59 sec       |<-- EFG
 
  Starting Calculation of Chemical Shielding Tensors              |<-- NMR
  +---------------- MEMORY AND SCRATCH DISK ESTIMATES PER PROCESS --------------+
  |                                                     Memory          Disk    |
  | Model and support data                              151.1 MB         0.0 MB |
  | NMR chemical shift calculation requirements          91.3 MB         0.0 MB |
  |                                               ----------------------------- |
  | Approx. total storage required per process          242.3 MB         0.0 MB |
  |                                                                             |
  | Requirements will fluctuate during execution and may exceed these estimates |
  +-----------------------------------------------------------------------------+
  Starting k-point:   1 of   1                                    |<-- NMR
  Total Time for step 1 of 6:                    272.25 sec       |<-- NMR
  Total Time for step 2 of 6:                    273.45 sec       |<-- NMR
  Total Time for step 3 of 6:                    271.70 sec       |<-- NMR
  Total Time for step 4 of 6:                    271.99 sec       |<-- NMR
  Total Time for step 5 of 6:                    272.21 sec       |<-- NMR
  Total Time for step 6 of 6:                    270.41 sec       |<-- NMR
  Total Time for Chemical Shielding Tensors     2418.64 sec       |<-- NMR
 
  ========================================================================
  |           Chemical Shielding and Electric Field Gradient Tensors     |
  |----------------------------------------------------------------------|
  |     Nucleus                Shielding tensor             EFG Tensor   |
  |  Species       Ion    Iso(ppm)   Aniso(ppm)  Asym    Cq(MHz)    Eta  |
  |    O           1     -318.82     -14.12      0.22  -6.054E-02   0.23 |
  |    O           2     -319.36     -15.68      0.21  -2.854E-02   0.75 |
  |    O           3     -318.82     -14.13      0.22  -6.054E-02   0.23 |
  |    O           4     -319.80     -14.27      0.64   4.924E-02   0.59 |
  |    O           5     -319.72     -10.49      0.55  -5.568E-02   0.56 |
  |    O           6     -319.72     -10.49      0.55  -5.568E-02   0.56 |
  |    O           7     -320.16     -18.22      0.66  -7.325E-02   0.74 |
  |    O           8     -319.11     -16.99      0.63   2.260E-02   0.87 |
  |    O           9      -86.70      86.74      0.28  -3.222E+00   0.08 |
  |    O          10      -13.65     -39.05      0.81   3.908E+00   0.89 |
  |    O          11       -9.47      58.28      0.85   3.806E+00   0.94 |
  |    O          12      -84.47      86.59      0.20  -3.110E+00   0.03 |
  |    O          13     -159.34     145.46      0.80   1.055E+00   0.61 |
  |    O          14      -12.76      58.77      0.50   3.898E+00   0.85 |
  |    O          15       -4.90      56.14      0.91   3.846E+00   0.95 |
  |    O          16      -17.49     -44.17      0.64   3.813E+00   0.91 |
  |    O          17      -17.48     -44.19      0.64   3.813E+00   0.91 |
  |    O          18      -80.68      85.20      0.17  -3.190E+00   0.07 |
  |    O          19      -12.76      58.75      0.50   3.898E+00   0.85 |
  |    O          20      -86.23      87.22      0.16  -3.166E+00   0.04 |
  |    O          21      -17.90      37.69      0.69   3.944E+00   0.85 |
  |    O          22      -86.89      86.84      0.14  -3.207E+00   0.06 |
  |    O          23      -88.55      88.28      0.17  -3.124E+00   0.04 |
  |    O          24        0.78      66.52      1.00   3.792E+00   0.96 |
  |    O          25      -82.92      89.07      0.19  -3.192E+00   0.07 |
  |    O          26      -17.74      39.17      0.96   3.862E+00   0.87 |
  |    O          27      -83.94      88.43      0.20  -3.173E+00   0.03 |
  |    O          28      -12.74      56.19      0.80   3.844E+00   0.89 |
  |    O          29      -86.89      86.83      0.14  -3.207E+00   0.06 |
  |    O          30      -86.72      79.93      0.04  -3.244E+00   0.11 |
  |    O          31        0.78      66.51      1.00   3.792E+00   0.96 |
  |    O          32      -16.97     -45.37      0.45   3.776E+00   0.96 |
  |    O          33      -18.67     -41.80      0.78   3.872E+00   0.89 |
  |    O          34      -90.84      78.69      0.04  -3.215E+00   0.09 |
  |    O          35      -86.72      79.93      0.04  -3.244E+00   0.11 |
  |    O          36      -16.96     -45.35      0.45   3.776E+00   0.96 |
  |    O          37       -9.34      55.89      0.87   3.823E+00   0.94 |
  |    O          38     -161.98     155.53      0.83   1.063E+00   0.68 |
  |    O          39      -21.09      38.47      0.64   3.923E+00   0.85 |
  |    O          40      -90.94      86.25      0.09  -3.172E+00   0.07 |
  |    O          41      -16.68     -44.97      0.42   3.790E+00   0.97 |
  |    O          42     -160.61     159.17      0.77   1.023E+00   0.76 |
  |    O          43     -159.34     145.45      0.80   1.055E+00   0.61 |
  |    O          44       -4.90      56.13      0.91   3.846E+00   0.95 |
  |    O          45      -86.70      86.74      0.28  -3.222E+00   0.08 |
  |    O          46       -9.47      58.28      0.85   3.806E+00   0.94 |
  |    O          47      -21.09      38.46      0.64   3.923E+00   0.85 |
  |    O          48      -90.94      86.25      0.09  -3.172E+00   0.07 |
  |    O          49       -9.34      55.90      0.87   3.823E+00   0.94 |
  |    O          50     -161.98     155.54      0.83   1.063E+00   0.68 |
  |    O          51      -82.92      89.07      0.19  -3.192E+00   0.07 |
  |    O          52      -83.94      88.43      0.20  -3.173E+00   0.03 |
  |    O          53      -17.90      37.67      0.69   3.944E+00   0.85 |
  |    O          54      -88.55      88.27      0.17  -3.124E+00   0.04 |
  |    O          55      -80.68      85.21      0.17  -3.190E+00   0.07 |
  |    O          56      -86.23      87.22      0.16  -3.166E+00   0.04 |
  |    Zr          1     1611.90    -114.20      0.11  -3.462E+01   0.12 |
  |    Zr          2     1630.71    -122.52      0.13  -3.667E+01   0.11 |
  |    Zr          3     1611.90    -114.21      0.11  -3.462E+01   0.12 |
  |    Zr          4     1630.71    -122.51      0.13  -3.667E+01   0.11 |
  |    Zr          5     1616.73    -113.88      0.10  -3.546E+01   0.10 |
  |    Sn          1     3243.91     -64.84      0.46   1.182E+02   0.09 |
  |    Sn          2     3243.56     -64.95      0.41   1.181E+02   0.00 |
  |    Sn          3     3252.13     -61.09      0.66   1.215E+02   0.21 |
  |    Sn          4     3244.96     -59.57      0.25   1.211E+02   0.16 |
  |    Sn          5     3237.04     -47.50      0.26   1.232E+02   0.14 |
  |    Sn          6     3244.96     -59.57      0.25   1.211E+02   0.16 |
  |    Sn          7     3252.13     -61.08      0.66   1.215E+02   0.21 |
  |    Sn          8     3243.91     -64.85      0.46   1.182E+02   0.09 |
  |    Sn          9     3255.19     -60.00      0.36   1.242E+02   0.17 |
  |    Sn         10     3255.19     -60.01      0.36   1.242E+02   0.17 |
  |    Sn         11     3236.42     -62.34      0.12   1.138E+02   0.09 |
  |    La          1     4546.25     393.28      0.07  -7.464E+01   0.13 |
  |    La          2     4563.04     382.18      0.04  -7.802E+01   0.08 |
  |    La          3     4651.42     658.14      0.10  -8.279E+01   0.15 |
  |    La          4     4701.44     758.07      0.03  -8.652E+01   0.08 |
  |    La          5     4602.05     517.68      0.08  -7.976E+01   0.08 |
  |    La          6     4603.42     543.56      0.07  -8.006E+01   0.19 |
  |    La          7     4611.66     539.64      0.05  -8.118E+01   0.18 |
  |    La          8     4546.25     393.28      0.07  -7.464E+01   0.13 |
  |    La          9     4603.42     543.55      0.07  -8.006E+01   0.19 |
  |    La         10     4602.05     517.68      0.08  -7.976E+01   0.08 |
  |    La         11     4651.42     658.13      0.10  -8.279E+01   0.15 |
  |    La         12     4563.04     382.19      0.04  -7.802E+01   0.08 |
  |    La         13     4493.26     236.63      0.02  -7.108E+01   0.03 |
  |    La         14     4611.24     509.89      0.07  -8.069E+01   0.08 |
  |    La         15     4611.24     509.89      0.07  -8.069E+01   0.08 |
  |    La         16     4589.67     518.33      0.10  -7.570E+01   0.09 |
  ========================================================================
 
 *********************** Forces ***********************
 *                                                    *
 *            Cartesian components (eV/A)             *
 * -------------------------------------------------- *
 *                   x            y            z      *
 *                                                    *
 * O         1      0.01264     -0.00251     -0.00201 *
 * O         2     -0.01653      0.00458      0.00458 *
 * O         3      0.01264     -0.00201     -0.00251 *
 * O         4     -0.00807     -0.00084     -0.00084 *
 * O         5      0.00755      0.01136     -0.01555 *
 * O         6      0.00755     -0.01555      0.01136 *
 * O         7     -0.00529      0.00966      0.00966 *
 * O         8     -0.00408     -0.01167     -0.01167 *
 * O         9      0.00695     -0.01062     -0.00770 *
 * O        10     -0.00647     -0.01146     -0.01146 *
 * O        11      0.01567     -0.00404      0.00026 *
 * O        12     -0.00205     -0.00349     -0.00349 *
 * O        13      0.01211     -0.00950      0.01423 *
 * O        14     -0.00467     -0.00543     -0.00109 *
 * O        15     -0.00841      0.00427     -0.00117 *
 * O        16      0.00824     -0.01196     -0.00349 *
 * O        17      0.00824     -0.00349     -0.01196 *
 * O        18      0.00842     -0.01660     -0.01079 *
 * O        19     -0.00467     -0.00109     -0.00543 *
 * O        20     -0.00990     -0.00784      0.00483 *
 * O        21      0.00400      0.01437      0.00513 *
 * O        22      0.00476     -0.00337      0.01744 *
 * O        23      0.00653     -0.00103      0.00259 *
 * O        24      0.00464     -0.02552     -0.00147 *
 * O        25      0.01362      0.01846     -0.01016 *
 * O        26      0.00141     -0.00475     -0.00475 *
 * O        27     -0.00560      0.00284      0.00076 *
 * O        28     -0.00240      0.00796      0.00796 *
 * O        29      0.00476      0.01744     -0.00337 *
 * O        30     -0.01110      0.01436      0.02655 *
 * O        31      0.00464     -0.00147     -0.02552 *
 * O        32     -0.00481     -0.00648      0.01468 *
 * O        33      0.00301      0.00805      0.00805 *
 * O        34     -0.01306      0.01049      0.01049 *
 * O        35     -0.01110      0.02655      0.01436 *
 * O        36     -0.00481      0.01468     -0.00648 *
 * O        37      0.00314      0.00523     -0.00739 *
 * O        38     -0.01784     -0.00237      0.01043 *
 * O        39     -0.00449     -0.01316     -0.00463 *
 * O        40     -0.00552      0.00411     -0.01387 *
 * O        41     -0.01007      0.00831      0.00831 *
 * O        42     -0.00724     -0.00960     -0.00960 *
 * O        43      0.01211      0.01423     -0.00950 *
 * O        44     -0.00841     -0.00116      0.00427 *
 * O        45      0.00695     -0.00770     -0.01062 *
 * O        46      0.01567      0.00026     -0.00404 *
 * O        47     -0.00449     -0.00463     -0.01316 *
 * O        48     -0.00552     -0.01387      0.00411 *
 * O        49      0.00314     -0.00739      0.00523 *
 * O        50     -0.01784      0.01043     -0.00237 *
 * O        51      0.01362     -0.01016      0.01846 *
 * O        52     -0.00560      0.00076      0.00284 *
 * O        53      0.00400      0.00513      0.01437 *
 * O        54      0.00653      0.00259     -0.00103 *
 * O        55      0.00842     -0.01079     -0.01660 *
 * O        56     -0.00990      0.00483     -0.00784 *
 * Zr        1      0.01686     -0.00810      0.00751 *
 * Zr        2      0.00994      0.00687     -0.00496 *
 * Zr        3      0.01686      0.00751     -0.00810 *
 * Zr        4      0.00994     -0.00496      0.00686 *
 * Zr        5      0.00025     -0.00698     -0.00698 *
 * Sn        1      0.00723      0.00042      0.01037 *
 * Sn        2     -0.00066     -0.01104     -0.01104 *
 * Sn        3     -0.00429     -0.00313     -0.00586 *
 * Sn        4     -0.01393      0.01839     -0.02067 *
 * Sn        5     -0.03423      0.02493      0.02493 *
 * Sn        6     -0.01393     -0.02067      0.01839 *
 * Sn        7     -0.00429     -0.00586     -0.00313 *
 * Sn        8      0.00723      0.01037      0.00042 *
 * Sn        9      0.01344     -0.00664     -0.00286 *
 * Sn       10      0.01344     -0.00286     -0.00664 *
 * Sn       11     -0.01484      0.00807      0.00807 *
 * La        1     -0.01875     -0.00289     -0.01426 *
 * La        2     -0.00384     -0.00975      0.01101 *
 * La        3     -0.01249      0.00143     -0.00641 *
 * La        4      0.01123      0.01120      0.01120 *
 * La        5     -0.00101      0.00816      0.01117 *
 * La        6      0.01407     -0.02181      0.01854 *
 * La        7      0.03015     -0.02134     -0.02134 *
 * La        8     -0.01875     -0.01426     -0.00289 *
 * La        9      0.01407      0.01854     -0.02181 *
 * La       10     -0.00101      0.01117      0.00816 *
 * La       11     -0.01249     -0.00641      0.00143 *
 * La       12     -0.00384      0.01101     -0.00974 *
 * La       13      0.02235      0.02182      0.02182 *
 * La       14     -0.01705      0.00819      0.00190 *
 * La       15     -0.01705      0.00190      0.00819 *
 * La       16      0.00437     -0.00268     -0.00268 *
 *                                                    *
 ******************************************************
 
 ***************** Stress Tensor *****************
 *                                               *
 *          Cartesian components (GPa)           *
 * --------------------------------------------- *
 *             x             y             z     *
 *                                               *
 *  x      0.002891     -0.002076     -0.002076  *
 *  y     -0.002076     -0.011761      0.011687  *
 *  z     -0.002076      0.011687     -0.011761  *
 *                                               *
 *  Pressure:    0.0069                          *
 *                                               *
 *************************************************
 
 Pseudo atomic calculation performed for O 2s2 2p4
 
 Converged in 39 iterations to a total energy of -432.6554 eV
 
 
 Pseudo atomic calculation performed for Zr 4s2 4p6 4d2 5s2
 
 Converged in 38 iterations to a total energy of -1285.4931 eV
 
 
 Pseudo atomic calculation performed for Sn 4d10 5s2 5p2
 
 Converged in 48 iterations to a total energy of -2044.5413 eV
 
 
 Pseudo atomic calculation performed for La 5s2 5p6 5d1 6s2
 
 Converged in 34 iterations to a total energy of -968.0373 eV
 
Charge spilling parameter for spin component 1 = 0.26%
 
     Atomic Populations (Mulliken)
     -----------------------------
Species   Ion     s      p      d      f     Total  Charge (e)
==============================================================
  O        1     1.87   5.00   0.00   0.00   6.87    -0.87
  O        2     1.87   5.00   0.00   0.00   6.87    -0.87
  O        3     1.87   5.00   0.00   0.00   6.87    -0.87
  O        4     1.87   5.00   0.00   0.00   6.87    -0.87
  O        5     1.87   5.00   0.00   0.00   6.87    -0.87
  O        6     1.87   5.00   0.00   0.00   6.87    -0.87
  O        7     1.87   5.00   0.00   0.00   6.87    -0.87
  O        8     1.87   5.00   0.00   0.00   6.87    -0.87
  O        9     1.87   4.99   0.00   0.00   6.86    -0.86
  O       10     1.88   5.03   0.00   0.00   6.91    -0.91
  O       11     1.88   5.03   0.00   0.00   6.91    -0.91
  O       12     1.87   4.99   0.00   0.00   6.86    -0.86
  O       13     1.86   4.95   0.00   0.00   6.80    -0.80
  O       14     1.88   5.03   0.00   0.00   6.91    -0.91
  O       15     1.88   5.03   0.00   0.00   6.91    -0.91
  O       16     1.88   5.03   0.00   0.00   6.91    -0.91
  O       17     1.88   5.03   0.00   0.00   6.91    -0.91
  O       18     1.87   4.99   0.00   0.00   6.86    -0.86
  O       19     1.88   5.03   0.00   0.00   6.91    -0.91
  O       20     1.87   4.99   0.00   0.00   6.86    -0.86
  O       21     1.88   5.03   0.00   0.00   6.91    -0.91
  O       22     1.87   4.99   0.00   0.00   6.86    -0.86
  O       23     1.87   4.99   0.00   0.00   6.86    -0.86
  O       24     1.88   5.03   0.00   0.00   6.91    -0.91
  O       25     1.87   4.99   0.00   0.00   6.86    -0.86
  O       26     1.88   5.03   0.00   0.00   6.91    -0.91
  O       27     1.87   4.99   0.00   0.00   6.86    -0.86
  O       28     1.88   5.03   0.00   0.00   6.91    -0.91
  O       29     1.87   4.99   0.00   0.00   6.86    -0.86
  O       30     1.87   4.99   0.00   0.00   6.86    -0.86
  O       31     1.88   5.03   0.00   0.00   6.91    -0.91
  O       32     1.89   5.03   0.00   0.00   6.91    -0.91
  O       33     1.88   5.03   0.00   0.00   6.91    -0.91
  O       34     1.87   4.99   0.00   0.00   6.86    -0.86
  O       35     1.87   4.99   0.00   0.00   6.86    -0.86
  O       36     1.89   5.03   0.00   0.00   6.91    -0.91
  O       37     1.88   5.03   0.00   0.00   6.91    -0.91
  O       38     1.86   4.95   0.00   0.00   6.80    -0.80
  O       39     1.88   5.03   0.00   0.00   6.91    -0.91
  O       40     1.87   4.99   0.00   0.00   6.86    -0.86
  O       41     1.89   5.03   0.00   0.00   6.91    -0.91
  O       42     1.86   4.95   0.00   0.00   6.80    -0.80
  O       43     1.86   4.95   0.00   0.00   6.80    -0.80
  O       44     1.88   5.03   0.00   0.00   6.91    -0.91
  O       45     1.87   4.99   0.00   0.00   6.86    -0.86
  O       46     1.88   5.03   0.00   0.00   6.91    -0.91
  O       47     1.88   5.03   0.00   0.00   6.91    -0.91
  O       48     1.87   4.99   0.00   0.00   6.86    -0.86
  O       49     1.88   5.03   0.00   0.00   6.91    -0.91
  O       50     1.86   4.95   0.00   0.00   6.80    -0.80
  O       51     1.87   4.99   0.00   0.00   6.86    -0.86
  O       52     1.87   4.99   0.00   0.00   6.86    -0.86
  O       53     1.88   5.03   0.00   0.00   6.91    -0.91
  O       54     1.87   4.99   0.00   0.00   6.86    -0.86
  O       55     1.87   4.99   0.00   0.00   6.86    -0.86
  O       56     1.87   4.99   0.00   0.00   6.86    -0.86
  Zr       1     2.36   6.49   1.92   0.00  10.77     1.23
  Zr       2     2.36   6.47   1.92   0.00  10.76     1.24
  Zr       3     2.36   6.49   1.92   0.00  10.77     1.23
  Zr       4     2.36   6.47   1.92   0.00  10.76     1.24
  Zr       5     2.36   6.48   1.92   0.00  10.76     1.24
  Sn       1     1.04   1.31  10.00   0.00  12.35     1.65
  Sn       2     1.04   1.31  10.00   0.00  12.35     1.65
  Sn       3     1.04   1.31  10.00   0.00  12.35     1.65
  Sn       4     1.04   1.31  10.00   0.00  12.35     1.65
  Sn       5     1.04   1.31  10.00   0.00  12.35     1.65
  Sn       6     1.04   1.31  10.00   0.00  12.35     1.65
  Sn       7     1.04   1.31  10.00   0.00  12.35     1.65
  Sn       8     1.04   1.31  10.00   0.00  12.35     1.65
  Sn       9     1.04   1.31  10.00   0.00  12.35     1.65
  Sn      10     1.04   1.31  10.00   0.00  12.35     1.65
  Sn      11     1.04   1.31  10.00   0.00  12.35     1.65
  La       1     2.12   6.18   1.19   0.00   9.50     1.50
  La       2     2.09   6.20   1.19   0.00   9.48     1.52
  La       3     2.04   6.17   1.20   0.00   9.40     1.60
  La       4     2.01   6.16   1.20   0.00   9.37     1.63
  La       5     2.07   6.18   1.19   0.00   9.44     1.56
  La       6     2.06   6.18   1.20   0.00   9.44     1.56
  La       7     2.06   6.19   1.19   0.00   9.44     1.56
  La       8     2.12   6.18   1.19   0.00   9.50     1.50
  La       9     2.06   6.18   1.20   0.00   9.44     1.56
  La      10     2.07   6.18   1.19   0.00   9.44     1.56
  La      11     2.04   6.17   1.20   0.00   9.40     1.60
  La      12     2.09   6.20   1.19   0.00   9.48     1.52
  La      13     2.14   6.20   1.19   0.00   9.53     1.47
  La      14     2.06   6.19   1.19   0.00   9.44     1.56
  La      15     2.06   6.19   1.19   0.00   9.44     1.56
  La      16     2.08   6.17   1.20   0.00   9.45     1.55
==============================================================
 
            Bond              Population      Length (A)
============================================================
         O 9  -- Sn 9              0.35        2.10073
         O 45 -- Sn 10             0.35        2.10073
         O 29 -- Sn 3              0.35        2.10084
         O 22 -- Sn 7              0.35        2.10084
         O 30 -- Sn 9              0.34        2.10158
         O 35 -- Sn 10             0.34        2.10158
         O 51 -- Sn 4              0.34        2.10243
         O 25 -- Sn 6              0.34        2.10243
         O 56 -- Sn 7              0.35        2.10342
         O 20 -- Sn 3              0.35        2.10342
         O 53 -- Sn 1              0.34        2.10413
         O 21 -- Sn 8              0.34        2.10413
         O 21 -- Sn 5              0.34        2.10457
         O 53 -- Sn 5              0.34        2.10457
         O 34 -- Sn 2              0.34        2.10477
         O 10 -- Sn 6              0.34        2.10487
         O 10 -- Sn 4              0.34        2.10487
         O 26 -- Sn 11             0.34        2.10629
         O 52 -- Sn 9              0.35        2.10688
         O 27 -- Sn 10             0.35        2.10688
         O 55 -- Sn 5              0.34        2.10702
         O 18 -- Sn 5              0.34        2.10702
         O 39 -- Sn 2              0.33        2.10741
         O 47 -- Sn 2              0.33        2.10741
         O 40 -- Sn 1              0.34        2.10822
         O 48 -- Sn 8              0.34        2.10822
         O 47 -- Sn 4              0.33        2.10860
         O 39 -- Sn 6              0.33        2.10860
         O 19 -- Sn 7              0.33        2.10935
         O 14 -- Sn 3              0.33        2.10935
         O 38 -- Zr 3              0.42        2.10943
         O 50 -- Zr 1              0.42        2.10943
         O 26 -- Sn 5              0.33        2.11081
         O 33 -- Sn 1              0.33        2.11133
         O 33 -- Sn 8              0.33        2.11133
         O 44 -- Sn 1              0.33        2.11168
         O 15 -- Sn 8              0.33        2.11168
         O 15 -- Sn 10             0.34        2.11179
         O 44 -- Sn 9              0.34        2.11179
         O 17 -- Sn 11             0.34        2.11192
         O 16 -- Sn 11             0.34        2.11192
         O 19 -- Sn 10             0.33        2.11242
         O 14 -- Sn 9              0.33        2.11242
         O 23 -- Sn 4              0.34        2.11243
         O 54 -- Sn 6              0.34        2.11243
         O 50 -- Zr 4              0.41        2.11247
         O 38 -- Zr 2              0.41        2.11247
         O 17 -- Sn 6              0.34        2.11290
         O 16 -- Sn 4              0.34        2.11290
         O 41 -- Sn 11             0.34        2.11299
         O 43 -- Zr 5              0.42        2.11378
         O 13 -- Zr 5              0.42        2.11378
         O 42 -- Zr 4              0.42        2.11416
         O 42 -- Zr 2              0.42        2.11417
         O 28 -- Sn 7              0.33        2.11429
         O 28 -- Sn 3              0.33        2.11429
         O 32 -- Sn 11             0.34        2.11475
         O 36 -- Sn 11             0.34        2.11475
         O 12 -- Sn 5              0.34        2.11483
         O 37 -- Sn 2              0.33        2.11487
         O 49 -- Sn 2              0.33        2.11487
         O 46 -- Sn 1              0.33        2.11508
         O 11 -- Sn 8              0.33        2.11508
         O 37 -- Sn 7              0.33        2.11555
         O 49 -- Sn 3              0.33        2.11555
         O 32 -- Sn 8              0.34        2.11578
         O 36 -- Sn 1              0.34        2.11578
         O 41 -- Sn 2              0.34        2.11689
         O 11 -- Sn 7              0.33        2.11713
         O 46 -- Sn 3              0.33        2.11713
         O 31 -- Sn 4              0.33        2.11729
         O 24 -- Sn 6              0.33        2.11729
         O 45 -- Zr 1              0.44        2.11825
         O 9  -- Zr 3              0.44        2.11825
         O 31 -- Sn 10             0.33        2.12009
         O 24 -- Sn 9              0.33        2.12009
         O 43 -- Zr 2              0.41        2.12038
         O 13 -- Zr 4              0.41        2.12038
         O 30 -- Zr 4              0.45        2.12055
         O 35 -- Zr 2              0.45        2.12055
         O 29 -- Zr 5              0.43        2.12141
         O 22 -- Zr 5              0.43        2.12141
         O 56 -- Zr 1              0.43        2.12233
         O 20 -- Zr 3              0.43        2.12233
         O 51 -- Zr 2              0.44        2.12248
         O 25 -- Zr 4              0.44        2.12248
         O 27 -- Zr 3              0.44        2.12319
         O 52 -- Zr 1              0.44        2.12319
         O 34 -- Zr 5              0.44        2.12335
         O 48 -- Zr 1              0.44        2.12402
         O 40 -- Zr 3              0.44        2.12402
         O 23 -- Zr 3              0.45        2.12513
         O 54 -- Zr 1              0.45        2.12513
         O 12 -- Zr 5              0.45        2.12579
         O 55 -- Zr 2              0.45        2.12609
         O 18 -- Zr 4              0.45        2.12609
         O 4  -- La 4              0.19        2.35435
         O 8  -- La 4              0.18        2.35470
         O 7  -- La 11             0.18        2.35569
         O 7  -- La 3              0.18        2.35569
         O 1  -- La 11             0.17        2.35622
         O 3  -- La 3              0.17        2.35622
         O 7  -- La 7              0.19        2.35646
         O 4  -- La 6              0.18        2.35655
         O 4  -- La 9              0.18        2.35655
         O 1  -- La 15             0.18        2.35706
         O 3  -- La 14             0.18        2.35706
         O 8  -- La 10             0.17        2.35731
         O 8  -- La 5              0.17        2.35731
         O 3  -- La 5              0.17        2.35802
         O 1  -- La 10             0.17        2.35802
         O 6  -- La 9              0.16        2.35819
         O 5  -- La 6              0.16        2.35819
         O 2  -- La 7              0.16        2.35836
         O 5  -- La 15             0.17        2.35845
         O 6  -- La 14             0.17        2.35845
         O 6  -- La 12             0.18        2.35863
         O 5  -- La 2              0.18        2.35863
         O 2  -- La 2              0.17        2.35924
         O 2  -- La 12             0.17        2.35924
         O 4  -- La 16             0.16        2.35935
         O 3  -- La 8              0.16        2.35976
         O 1  -- La 1              0.16        2.35976
         O 7  -- La 16             0.16        2.35978
         O 6  -- La 1              0.16        2.36108
         O 5  -- La 8              0.16        2.36108
         O 8  -- La 13             0.16        2.36148
         O 2  -- La 13             0.15        2.36355
         O 42 -- La 16             0.12        2.66020
         O 10 -- La 13             0.23        2.66059
         O 33 -- La 13             0.23        2.66078
         O 28 -- La 16             0.23        2.66081
         O 39 -- La 8              0.23        2.66414
         O 47 -- La 1              0.23        2.66414
         O 14 -- La 16             0.23        2.66464
         O 19 -- La 16             0.23        2.66464
         O 50 -- La 5              0.13        2.66475
         O 38 -- La 10             0.13        2.66475
         O 11 -- La 8              0.24        2.66509
         O 46 -- La 1              0.24        2.66509
         O 53 -- La 1              0.23        2.66538
         O 21 -- La 8              0.23        2.66538
         O 44 -- La 13             0.24        2.66559
         O 15 -- La 13             0.24        2.66559
         O 16 -- La 5              0.23        2.66585
         O 17 -- La 10             0.23        2.66585
         O 24 -- La 13             0.24        2.66658
         O 31 -- La 13             0.24        2.66658
         O 49 -- La 1              0.24        2.66673
         O 37 -- La 8              0.24        2.66673
         O 35 -- La 16             0.16        2.66817
         O 30 -- La 16             0.16        2.66817
         O 51 -- La 1              0.18        2.66829
         O 25 -- La 8              0.18        2.66829
         O 22 -- La 9              0.17        2.66849
         O 29 -- La 6              0.17        2.66849
         O 13 -- La 15             0.14        2.66871
         O 43 -- La 14             0.14        2.66871
         O 13 -- La 11             0.12        2.66877
         O 43 -- La 3              0.12        2.66877
         O 45 -- La 5              0.17        2.66918
         O 9  -- La 10             0.17        2.66918
         O 56 -- La 2              0.18        2.66957
         O 20 -- La 12             0.18        2.66957
         O 32 -- La 12             0.24        2.66962
         O 36 -- La 2              0.24        2.66962
         O 26 -- La 10             0.23        2.66971
         O 26 -- La 5              0.23        2.66971
         O 40 -- La 9              0.17        2.66985
         O 48 -- La 6              0.17        2.66985
         O 41 -- La 12             0.24        2.67073
         O 41 -- La 2              0.24        2.67073
         O 18 -- La 8              0.19        2.67148
         O 55 -- La 1              0.19        2.67148
         O 36 -- La 15             0.24        2.67203
         O 32 -- La 14             0.24        2.67203
         O 34 -- La 11             0.17        2.67205
         O 34 -- La 3              0.17        2.67205
         O 45 -- La 3              0.17        2.67283
         O 9  -- La 11             0.17        2.67283
         O 16 -- La 14             0.23        2.67283
         O 17 -- La 15             0.23        2.67283
         O 22 -- La 14             0.18        2.67294
         O 29 -- La 15             0.18        2.67294
         O 52 -- La 2              0.19        2.67322
         O 27 -- La 12             0.19        2.67322
         O 23 -- La 11             0.18        2.67343
         O 54 -- La 3              0.18        2.67343
         O 20 -- La 7              0.18        2.67400
         O 56 -- La 7              0.18        2.67400
         O 38 -- La 4              0.13        2.67420
         O 50 -- La 4              0.13        2.67420
         O 40 -- La 4              0.18        2.67433
         O 48 -- La 4              0.18        2.67433
         O 52 -- La 6              0.18        2.67467
         O 27 -- La 9              0.18        2.67467
         O 12 -- La 6              0.18        2.67529
         O 12 -- La 9              0.18        2.67529
         O 54 -- La 7              0.19        2.67566
         O 23 -- La 7              0.19        2.67566
         O 53 -- La 9              0.23        2.67594
         O 21 -- La 6              0.23        2.67594
         O 14 -- La 6              0.24        2.67636
         O 19 -- La 9              0.24        2.67636
         O 39 -- La 3              0.23        2.67638
         O 47 -- La 11             0.23        2.67638
         O 49 -- La 12             0.25        2.67671
         O 37 -- La 2              0.25        2.67671
         O 33 -- La 4              0.24        2.67790
         O 28 -- La 7              0.24        2.67835
         O 24 -- La 10             0.25        2.67850
         O 31 -- La 5              0.25        2.67850
         O 11 -- La 14             0.24        2.67863
         O 46 -- La 15             0.24        2.67863
         O 15 -- La 12             0.24        2.67940
         O 44 -- La 2              0.24        2.67940
         O 10 -- La 7              0.22        2.67981
         O 42 -- La 4              0.13        2.68045
         O 35 -- La 3              0.18        2.68047
         O 30 -- La 11             0.18        2.68047
         O 51 -- La 14             0.19        2.68237
         O 25 -- La 15             0.19        2.68237
         O 18 -- La 5              0.18        2.68257
         O 55 -- La 10             0.18        2.68257
         O 19 -- O 35             -0.06        2.79252
         O 14 -- O 30             -0.06        2.79252
         O 47 -- O 51             -0.06        2.79331
         O 25 -- O 39             -0.06        2.79331
         O 19 -- O 28             -0.06        2.79398
         O 14 -- O 28             -0.06        2.79398
         O 17 -- O 26             -0.06        2.79440
         O 16 -- O 26             -0.06        2.79440
         O 21 -- O 48             -0.06        2.79442
         O 40 -- O 53             -0.06        2.79442
         O 9  -- O 30             -0.06        2.79520
         O 35 -- O 45             -0.06        2.79520
         O 11 -- O 21             -0.05        2.79522
         O 46 -- O 53             -0.05        2.79522
         O 34 -- O 47             -0.06        2.79589
         O 34 -- O 39             -0.06        2.79589
         O 53 -- O 55             -0.06        2.79627
         O 18 -- O 21             -0.06        2.79627
         O 33 -- O 44             -0.05        2.79652
         O 15 -- O 33             -0.05        2.79652
         O 37 -- O 39             -0.05        2.79680
         O 47 -- O 49             -0.05        2.79680
         O 14 -- O 29             -0.06        2.79687
         O 19 -- O 22             -0.06        2.79687
         O 10 -- O 31             -0.05        2.79927
         O 10 -- O 24             -0.05        2.79927
         O 23 -- O 47             -0.06        2.80128
         O 39 -- O 54             -0.06        2.80128
         O 33 -- O 40             -0.06        2.80323
         O 33 -- O 48             -0.06        2.80323
         O 12 -- O 21             -0.06        2.80416
         O 12 -- O 53             -0.06        2.80416
         O 10 -- O 23             -0.06        2.80478
         O 10 -- O 54             -0.06        2.80478
         O 19 -- O 27             -0.06        2.80503
         O 14 -- O 52             -0.06        2.80503
         O 46 -- O 49             -0.05        2.80542
         O 11 -- O 37             -0.05        2.80542
         O 16 -- O 32             -0.05        2.80573
         O 17 -- O 36             -0.05        2.80573
         O 26 -- O 55             -0.06        2.80585
         O 18 -- O 26             -0.06        2.80585
         O 28 -- O 56             -0.06        2.80595
         O 20 -- O 28             -0.06        2.80595
         O 20 -- O 49             -0.06        2.80603
         O 37 -- O 56             -0.06        2.80603
         O 17 -- O 25             -0.06        2.80607
         O 16 -- O 51             -0.06        2.80607
         O 32 -- O 41             -0.05        2.80633
         O 36 -- O 41             -0.05        2.80633
         O 9  -- O 24             -0.06        2.80669
         O 31 -- O 45             -0.05        2.80669
         O 29 -- O 46             -0.05        2.80692
         O 11 -- O 22             -0.05        2.80692
         O 44 -- O 52             -0.05        2.80860
         O 15 -- O 27             -0.05        2.80860
         O 16 -- O 31             -0.05        2.80863
         O 17 -- O 24             -0.05        2.80863
         O 15 -- O 31             -0.05        2.80932
         O 24 -- O 44             -0.05        2.80933
         O 36 -- O 44             -0.05        2.80963
         O 15 -- O 32             -0.05        2.80963
         O 11 -- O 32             -0.05        2.80978
         O 36 -- O 46             -0.05        2.80978
         O 41 -- O 49             -0.05        2.81119
         O 37 -- O 41             -0.05        2.81119
         O 35 -- O 42             -0.03        2.81366
         O 30 -- O 42             -0.03        2.81366
         O 45 -- O 50             -0.03        2.81479
         O 9  -- O 38             -0.03        2.81479
         O 42 -- O 50             -0.03        2.82067
         O 38 -- O 42             -0.03        2.82067
         O 13 -- O 34             -0.03        2.82242
         O 34 -- O 43             -0.03        2.82242
         O 48 -- O 50             -0.03        2.82321
         O 38 -- O 40             -0.03        2.82321
         O 35 -- O 43             -0.03        2.82631
         O 13 -- O 30             -0.03        2.82631
         O 22 -- O 43             -0.03        2.82710
         O 13 -- O 29             -0.03        2.82710
         O 38 -- O 55             -0.03        2.82898
         O 18 -- O 50             -0.03        2.82898
         O 9  -- O 23             -0.03        2.82995
         O 45 -- O 54             -0.03        2.82995
         O 43 -- O 51             -0.03        2.83134
         O 13 -- O 25             -0.03        2.83134
         O 27 -- O 40             -0.03        2.83160
         O 48 -- O 52             -0.03        2.83160
         O 12 -- O 22             -0.03        2.83474
         O 12 -- O 29             -0.03        2.83474
         O 51 -- O 55             -0.03        2.83540
         O 18 -- O 25             -0.03        2.83540
         O 20 -- O 23             -0.03        2.83561
         O 54 -- O 56             -0.03        2.83561
         O 52 -- O 56             -0.03        2.83605
         O 20 -- O 27             -0.03        2.83605
============================================================
 
Initialisation time =     25.24 s
Calculation time    =   2735.60 s
Finalisation time   =      0.12 s
Total time          =   2760.97 s
Peak Memory Use     = 3401412 kB
  
Overall parallel efficiency rating: Good (73%)                                  
  
Data was distributed by:-
G-vector (64-way); efficiency rating: Good (74%)                                
k-point (14-way); efficiency rating: Excellent (96%)                            
